ITEM: TIMESTEP
0          0
ITEM: NUMBER OF ATOMS
2500
ITEM: BOX BOUNDS
0 50
0 50
-0.5 0.5
ITEM: ATOMS id type x y z 
1 1 0 0 0 
2 2 1 0 0 
3 1 2 0 0 
4 1 3 0 0 
5 1 4 0 0 
6 2 5 0 0 
7 2 6 0 0 
8 2 7 0 0 
9 1 8 0 0 
10 2 9 0 0 
11 2 10 0 0 
12 1 11 0 0 
13 1 12 0 0 
14 1 13 0 0 
15 2 14 0 0 
16 2 15 0 0 
17 2 16 0 0 
18 1 17 0 0 
19 2 18 0 0 
20 2 19 0 0 
21 2 20 0 0 
22 1 21 0 0 
23 1 22 0 0 
24 2 23 0 0 
25 1 24 0 0 
51 2 0 1 0 
52 2 1 1 0 
53 2 2 1 0 
54 2 3 1 0 
55 2 4 1 0 
56 1 5 1 0 
57 1 6 1 0 
58 1 7 1 0 
59 2 8 1 0 
60 1 9 1 0 
61 2 10 1 0 
62 1 11 1 0 
63 2 12 1 0 
64 1 13 1 0 
65 2 14 1 0 
66 2 15 1 0 
67 1 16 1 0 
68 2 17 1 0 
69 2 18 1 0 
70 2 19 1 0 
71 1 20 1 0 
72 1 21 1 0 
73 2 22 1 0 
74 1 23 1 0 
75 2 24 1 0 
101 2 0 2 0 
102 1 1 2 0 
103 1 2 2 0 
104 2 3 2 0 
105 1 4 2 0 
106 1 5 2 0 
107 1 6 2 0 
108 2 7 2 0 
109 1 8 2 0 
110 2 9 2 0 
111 1 10 2 0 
112 2 11 2 0 
113 1 12 2 0 
114 2 13 2 0 
115 1 14 2 0 
116 1 15 2 0 
117 1 16 2 0 
118 2 17 2 0 
119 1 18 2 0 
120 2 19 2 0 
121 1 20 2 0 
122 1 21 2 0 
123 1 22 2 0 
124 1 23 2 0 
125 2 24 2 0 
151 2 0 3 0 
152 2 1 3 0 
153 2 2 3 0 
154 1 3 3 0 
155 1 4 3 0 
156 2 5 3 0 
157 2 6 3 0 
158 1 7 3 0 
159 1 8 3 0 
160 2 9 3 0 
161 2 10 3 0 
162 2 11 3 0 
163 1 12 3 0 
164 2 13 3 0 
165 2 14 3 0 
166 2 15 3 0 
167 1 16 3 0 
168 2 17 3 0 
169 1 18 3 0 
170 1 19 3 0 
171 1 20 3 0 
172 2 21 3 0 
173 1 22 3 0 
174 2 23 3 0 
175 1 24 3 0 
201 1 0 4 0 
202 1 1 4 0 
203 1 2 4 0 
204 1 3 4 0 
205 2 4 4 0 
206 1 5 4 0 
207 1 6 4 0 
208 2 7 4 0 
209 2 8 4 0 
210 2 9 4 0 
211 1 10 4 0 
212 1 11 4 0 
213 2 12 4 0 
214 2 13 4 0 
215 1 14 4 0 
216 1 15 4 0 
217 2 16 4 0 
218 1 17 4 0 
219 2 18 4 0 
220 1 19 4 0 
221 2 20 4 0 
222 2 21 4 0 
223 2 22 4 0 
224 2 23 4 0 
225 2 24 4 0 
251 1 0 5 0 
252 1 1 5 0 
253 2 2 5 0 
254 1 3 5 0 
255 1 4 5 0 
256 2 5 5 0 
257 2 6 5 0 
258 2 7 5 0 
259 2 8 5 0 
260 2 9 5 0 
261 1 10 5 0 
262 1 11 5 0 
263 2 12 5 0 
264 2 13 5 0 
265 2 14 5 0 
266 2 15 5 0 
267 2 16 5 0 
268 1 17 5 0 
269 1 18 5 0 
270 2 19 5 0 
271 1 20 5 0 
272 1 21 5 0 
273 2 22 5 0 
274 1 23 5 0 
275 2 24 5 0 
301 2 0 6 0 
302 2 1 6 0 
303 1 2 6 0 
304 2 3 6 0 
305 1 4 6 0 
306 2 5 6 0 
307 1 6 6 0 
308 2 7 6 0 
309 1 8 6 0 
310 1 9 6 0 
311 1 10 6 0 
312 1 11 6 0 
313 1 12 6 0 
314 2 13 6 0 
315 1 14 6 0 
316 1 15 6 0 
317 1 16 6 0 
318 2 17 6 0 
319 1 18 6 0 
320 1 19 6 0 
321 2 20 6 0 
322 2 21 6 0 
323 1 22 6 0 
324 1 23 6 0 
325 1 24 6 0 
351 1 0 7 0 
352 1 1 7 0 
353 2 2 7 0 
354 2 3 7 0 
355 2 4 7 0 
356 1 5 7 0 
357 2 6 7 0 
358 1 7 7 0 
359 2 8 7 0 
360 1 9 7 0 
361 1 10 7 0 
362 2 11 7 0 
363 1 12 7 0 
364 1 13 7 0 
365 1 14 7 0 
366 1 15 7 0 
367 2 16 7 0 
368 1 17 7 0 
369 1 18 7 0 
370 2 19 7 0 
371 2 20 7 0 
372 1 21 7 0 
373 1 22 7 0 
374 2 23 7 0 
375 1 24 7 0 
401 1 0 8 0 
402 1 1 8 0 
403 2 2 8 0 
404 1 3 8 0 
405 1 4 8 0 
406 1 5 8 0 
407 1 6 8 0 
408 1 7 8 0 
409 2 8 8 0 
410 1 9 8 0 
411 2 10 8 0 
412 1 11 8 0 
413 1 12 8 0 
414 1 13 8 0 
415 2 14 8 0 
416 2 15 8 0 
417 2 16 8 0 
418 2 17 8 0 
419 1 18 8 0 
420 2 19 8 0 
421 2 20 8 0 
422 2 21 8 0 
423 1 22 8 0 
424 1 23 8 0 
425 1 24 8 0 
451 2 0 9 0 
452 1 1 9 0 
453 2 2 9 0 
454 1 3 9 0 
455 2 4 9 0 
456 1 5 9 0 
457 2 6 9 0 
458 2 7 9 0 
459 1 8 9 0 
460 2 9 9 0 
461 1 10 9 0 
462 2 11 9 0 
463 1 12 9 0 
464 2 13 9 0 
465 1 14 9 0 
466 2 15 9 0 
467 2 16 9 0 
468 1 17 9 0 
469 1 18 9 0 
470 1 19 9 0 
471 2 20 9 0 
472 2 21 9 0 
473 1 22 9 0 
474 2 23 9 0 
475 2 24 9 0 
501 2 0 10 0 
502 1 1 10 0 
503 2 2 10 0 
504 1 3 10 0 
505 1 4 10 0 
506 1 5 10 0 
507 2 6 10 0 
508 1 7 10 0 
509 2 8 10 0 
510 1 9 10 0 
511 1 10 10 0 
512 1 11 10 0 
513 2 12 10 0 
514 1 13 10 0 
515 1 14 10 0 
516 2 15 10 0 
517 1 16 10 0 
518 1 17 10 0 
519 2 18 10 0 
520 2 19 10 0 
521 2 20 10 0 
522 2 21 10 0 
523 2 22 10 0 
524 1 23 10 0 
525 1 24 10 0 
551 2 0 11 0 
552 2 1 11 0 
553 2 2 11 0 
554 1 3 11 0 
555 1 4 11 0 
556 2 5 11 0 
557 1 6 11 0 
558 2 7 11 0 
559 1 8 11 0 
560 2 9 11 0 
561 1 10 11 0 
562 1 11 11 0 
563 1 12 11 0 
564 1 13 11 0 
565 2 14 11 0 
566 1 15 11 0 
567 2 16 11 0 
568 1 17 11 0 
569 2 18 11 0 
570 2 19 11 0 
571 1 20 11 0 
572 2 21 11 0 
573 2 22 11 0 
574 2 23 11 0 
575 2 24 11 0 
601 1 0 12 0 
602 2 1 12 0 
603 2 2 12 0 
604 2 3 12 0 
605 1 4 12 0 
606 1 5 12 0 
607 1 6 12 0 
608 2 7 12 0 
609 1 8 12 0 
610 1 9 12 0 
611 1 10 12 0 
612 1 11 12 0 
613 1 12 12 0 
614 2 13 12 0 
615 1 14 12 0 
616 2 15 12 0 
617 1 16 12 0 
618 2 17 12 0 
619 2 18 12 0 
620 2 19 12 0 
621 2 20 12 0 
622 2 21 12 0 
623 2 22 12 0 
624 2 23 12 0 
625 2 24 12 0 
651 2 0 13 0 
652 1 1 13 0 
653 1 2 13 0 
654 1 3 13 0 
655 1 4 13 0 
656 1 5 13 0 
657 2 6 13 0 
658 2 7 13 0 
659 1 8 13 0 
660 2 9 13 0 
661 2 10 13 0 
662 1 11 13 0 
663 1 12 13 0 
664 2 13 13 0 
665 1 14 13 0 
666 1 15 13 0 
667 1 16 13 0 
668 2 17 13 0 
669 1 18 13 0 
670 2 19 13 0 
671 2 20 13 0 
672 2 21 13 0 
673 2 22 13 0 
674 1 23 13 0 
675 1 24 13 0 
701 1 0 14 0 
702 2 1 14 0 
703 1 2 14 0 
704 1 3 14 0 
705 1 4 14 0 
706 2 5 14 0 
707 1 6 14 0 
708 2 7 14 0 
709 1 8 14 0 
710 2 9 14 0 
711 2 10 14 0 
712 2 11 14 0 
713 1 12 14 0 
714 1 13 14 0 
715 1 14 14 0 
716 2 15 14 0 
717 2 16 14 0 
718 1 17 14 0 
719 1 18 14 0 
720 2 19 14 0 
721 2 20 14 0 
722 2 21 14 0 
723 2 22 14 0 
724 1 23 14 0 
725 1 24 14 0 
751 1 0 15 0 
752 2 1 15 0 
753 2 2 15 0 
754 2 3 15 0 
755 2 4 15 0 
756 1 5 15 0 
757 1 6 15 0 
758 2 7 15 0 
759 2 8 15 0 
760 1 9 15 0 
761 2 10 15 0 
762 2 11 15 0 
763 1 12 15 0 
764 2 13 15 0 
765 1 14 15 0 
766 1 15 15 0 
767 2 16 15 0 
768 2 17 15 0 
769 1 18 15 0 
770 1 19 15 0 
771 2 20 15 0 
772 2 21 15 0 
773 1 22 15 0 
774 2 23 15 0 
775 1 24 15 0 
801 1 0 16 0 
802 1 1 16 0 
803 2 2 16 0 
804 2 3 16 0 
805 1 4 16 0 
806 2 5 16 0 
807 2 6 16 0 
808 1 7 16 0 
809 1 8 16 0 
810 2 9 16 0 
811 1 10 16 0 
812 2 11 16 0 
813 2 12 16 0 
814 1 13 16 0 
815 1 14 16 0 
816 2 15 16 0 
817 2 16 16 0 
818 2 17 16 0 
819 2 18 16 0 
820 1 19 16 0 
821 1 20 16 0 
822 2 21 16 0 
823 2 22 16 0 
824 2 23 16 0 
825 1 24 16 0 
851 1 0 17 0 
852 2 1 17 0 
853 2 2 17 0 
854 2 3 17 0 
855 2 4 17 0 
856 2 5 17 0 
857 2 6 17 0 
858 2 7 17 0 
859 2 8 17 0 
860 2 9 17 0 
861 2 10 17 0 
862 2 11 17 0 
863 1 12 17 0 
864 2 13 17 0 
865 1 14 17 0 
866 1 15 17 0 
867 1 16 17 0 
868 2 17 17 0 
869 2 18 17 0 
870 1 19 17 0 
871 2 20 17 0 
872 2 21 17 0 
873 1 22 17 0 
874 1 23 17 0 
875 1 24 17 0 
901 2 0 18 0 
902 2 1 18 0 
903 1 2 18 0 
904 2 3 18 0 
905 2 4 18 0 
906 2 5 18 0 
907 2 6 18 0 
908 2 7 18 0 
909 1 8 18 0 
910 2 9 18 0 
911 1 10 18 0 
912 1 11 18 0 
913 2 12 18 0 
914 1 13 18 0 
915 1 14 18 0 
916 2 15 18 0 
917 2 16 18 0 
918 2 17 18 0 
919 1 18 18 0 
920 2 19 18 0 
921 2 20 18 0 
922 1 21 18 0 
923 2 22 18 0 
924 1 23 18 0 
925 2 24 18 0 
951 2 0 19 0 
952 1 1 19 0 
953 2 2 19 0 
954 1 3 19 0 
955 2 4 19 0 
956 1 5 19 0 
957 1 6 19 0 
958 1 7 19 0 
959 2 8 19 0 
960 1 9 19 0 
961 2 10 19 0 
962 1 11 19 0 
963 2 12 19 0 
964 2 13 19 0 
965 2 14 19 0 
966 1 15 19 0 
967 1 16 19 0 
968 1 17 19 0 
969 2 18 19 0 
970 2 19 19 0 
971 2 20 19 0 
972 2 21 19 0 
973 1 22 19 0 
974 1 23 19 0 
975 1 24 19 0 
1001 1 0 20 0 
1002 1 1 20 0 
1003 2 2 20 0 
1004 1 3 20 0 
1005 2 4 20 0 
1006 2 5 20 0 
1007 2 6 20 0 
1008 2 7 20 0 
1009 2 8 20 0 
1010 1 9 20 0 
1011 1 10 20 0 
1012 1 11 20 0 
1013 2 12 20 0 
1014 1 13 20 0 
1015 1 14 20 0 
1016 2 15 20 0 
1017 1 16 20 0 
1018 2 17 20 0 
1019 2 18 20 0 
1020 2 19 20 0 
1021 2 20 20 0 
1022 1 21 20 0 
1023 2 22 20 0 
1024 2 23 20 0 
1025 2 24 20 0 
1051 2 0 21 0 
1052 2 1 21 0 
1053 2 2 21 0 
1054 2 3 21 0 
1055 2 4 21 0 
1056 1 5 21 0 
1057 1 6 21 0 
1058 2 7 21 0 
1059 1 8 21 0 
1060 1 9 21 0 
1061 1 10 21 0 
1062 1 11 21 0 
1063 2 12 21 0 
1064 1 13 21 0 
1065 1 14 21 0 
1066 1 15 21 0 
1067 2 16 21 0 
1068 2 17 21 0 
1069 2 18 21 0 
1070 2 19 21 0 
1071 1 20 21 0 
1072 2 21 21 0 
1073 1 22 21 0 
1074 2 23 21 0 
1075 1 24 21 0 
1101 2 0 22 0 
1102 1 1 22 0 
1103 1 2 22 0 
1104 1 3 22 0 
1105 1 4 22 0 
1106 1 5 22 0 
1107 2 6 22 0 
1108 2 7 22 0 
1109 1 8 22 0 
1110 1 9 22 0 
1111 2 10 22 0 
1112 2 11 22 0 
1113 1 12 22 0 
1114 1 13 22 0 
1115 1 14 22 0 
1116 1 15 22 0 
1117 1 16 22 0 
1118 1 17 22 0 
1119 2 18 22 0 
1120 2 19 22 0 
1121 1 20 22 0 
1122 1 21 22 0 
1123 2 22 22 0 
1124 2 23 22 0 
1125 1 24 22 0 
1151 1 0 23 0 
1152 1 1 23 0 
1153 1 2 23 0 
1154 2 3 23 0 
1155 2 4 23 0 
1156 1 5 23 0 
1157 2 6 23 0 
1158 2 7 23 0 
1159 2 8 23 0 
1160 2 9 23 0 
1161 2 10 23 0 
1162 1 11 23 0 
1163 2 12 23 0 
1164 2 13 23 0 
1165 1 14 23 0 
1166 2 15 23 0 
1167 2 16 23 0 
1168 1 17 23 0 
1169 2 18 23 0 
1170 2 19 23 0 
1171 1 20 23 0 
1172 1 21 23 0 
1173 2 22 23 0 
1174 1 23 23 0 
1175 1 24 23 0 
1201 1 0 24 0 
1202 1 1 24 0 
1203 2 2 24 0 
1204 1 3 24 0 
1205 2 4 24 0 
1206 2 5 24 0 
1207 2 6 24 0 
1208 1 7 24 0 
1209 2 8 24 0 
1210 2 9 24 0 
1211 2 10 24 0 
1212 2 11 24 0 
1213 1 12 24 0 
1214 2 13 24 0 
1215 2 14 24 0 
1216 2 15 24 0 
1217 1 16 24 0 
1218 1 17 24 0 
1219 2 18 24 0 
1220 2 19 24 0 
1221 1 20 24 0 
1222 1 21 24 0 
1223 2 22 24 0 
1224 1 23 24 0 
1225 2 24 24 0 
26 1 25 0 0 
27 1 26 0 0 
28 2 27 0 0 
29 1 28 0 0 
30 1 29 0 0 
31 2 30 0 0 
32 1 31 0 0 
33 2 32 0 0 
34 1 33 0 0 
35 1 34 0 0 
36 1 35 0 0 
37 1 36 0 0 
38 1 37 0 0 
39 2 38 0 0 
40 1 39 0 0 
41 1 40 0 0 
42 1 41 0 0 
43 1 42 0 0 
44 1 43 0 0 
45 1 44 0 0 
46 1 45 0 0 
47 1 46 0 0 
48 1 47 0 0 
49 1 48 0 0 
50 1 49 0 0 
76 1 25 1 0 
77 2 26 1 0 
78 2 27 1 0 
79 1 28 1 0 
80 2 29 1 0 
81 1 30 1 0 
82 1 31 1 0 
83 2 32 1 0 
84 2 33 1 0 
85 1 34 1 0 
86 2 35 1 0 
87 1 36 1 0 
88 2 37 1 0 
89 2 38 1 0 
90 1 39 1 0 
91 1 40 1 0 
92 2 41 1 0 
93 1 42 1 0 
94 1 43 1 0 
95 2 44 1 0 
96 1 45 1 0 
97 2 46 1 0 
98 1 47 1 0 
99 2 48 1 0 
100 1 49 1 0 
126 2 25 2 0 
127 2 26 2 0 
128 1 27 2 0 
129 1 28 2 0 
130 1 29 2 0 
131 2 30 2 0 
132 2 31 2 0 
133 1 32 2 0 
134 2 33 2 0 
135 2 34 2 0 
136 1 35 2 0 
137 2 36 2 0 
138 1 37 2 0 
139 2 38 2 0 
140 1 39 2 0 
141 2 40 2 0 
142 2 41 2 0 
143 2 42 2 0 
144 2 43 2 0 
145 2 44 2 0 
146 2 45 2 0 
147 2 46 2 0 
148 2 47 2 0 
149 1 48 2 0 
150 1 49 2 0 
176 2 25 3 0 
177 2 26 3 0 
178 2 27 3 0 
179 1 28 3 0 
180 2 29 3 0 
181 2 30 3 0 
182 1 31 3 0 
183 1 32 3 0 
184 2 33 3 0 
185 2 34 3 0 
186 2 35 3 0 
187 2 36 3 0 
188 2 37 3 0 
189 2 38 3 0 
190 1 39 3 0 
191 2 40 3 0 
192 2 41 3 0 
193 2 42 3 0 
194 1 43 3 0 
195 2 44 3 0 
196 2 45 3 0 
197 2 46 3 0 
198 1 47 3 0 
199 1 48 3 0 
200 1 49 3 0 
226 1 25 4 0 
227 1 26 4 0 
228 1 27 4 0 
229 1 28 4 0 
230 2 29 4 0 
231 1 30 4 0 
232 2 31 4 0 
233 2 32 4 0 
234 2 33 4 0 
235 2 34 4 0 
236 2 35 4 0 
237 2 36 4 0 
238 1 37 4 0 
239 1 38 4 0 
240 2 39 4 0 
241 2 40 4 0 
242 2 41 4 0 
243 1 42 4 0 
244 2 43 4 0 
245 1 44 4 0 
246 2 45 4 0 
247 1 46 4 0 
248 1 47 4 0 
249 1 48 4 0 
250 1 49 4 0 
276 1 25 5 0 
277 2 26 5 0 
278 1 27 5 0 
279 2 28 5 0 
280 2 29 5 0 
281 1 30 5 0 
282 1 31 5 0 
283 2 32 5 0 
284 2 33 5 0 
285 1 34 5 0 
286 2 35 5 0 
287 2 36 5 0 
288 2 37 5 0 
289 2 38 5 0 
290 1 39 5 0 
291 2 40 5 0 
292 1 41 5 0 
293 2 42 5 0 
294 1 43 5 0 
295 1 44 5 0 
296 2 45 5 0 
297 2 46 5 0 
298 1 47 5 0 
299 1 48 5 0 
300 2 49 5 0 
326 1 25 6 0 
327 2 26 6 0 
328 2 27 6 0 
329 1 28 6 0 
330 2 29 6 0 
331 1 30 6 0 
332 1 31 6 0 
333 1 32 6 0 
334 2 33 6 0 
335 2 34 6 0 
336 1 35 6 0 
337 2 36 6 0 
338 2 37 6 0 
339 1 38 6 0 
340 1 39 6 0 
341 1 40 6 0 
342 1 41 6 0 
343 2 42 6 0 
344 2 43 6 0 
345 1 44 6 0 
346 1 45 6 0 
347 1 46 6 0 
348 1 47 6 0 
349 1 48 6 0 
350 1 49 6 0 
376 1 25 7 0 
377 1 26 7 0 
378 2 27 7 0 
379 1 28 7 0 
380 2 29 7 0 
381 1 30 7 0 
382 1 31 7 0 
383 1 32 7 0 
384 2 33 7 0 
385 1 34 7 0 
386 1 35 7 0 
387 1 36 7 0 
388 1 37 7 0 
389 1 38 7 0 
390 2 39 7 0 
391 1 40 7 0 
392 1 41 7 0 
393 1 42 7 0 
394 2 43 7 0 
395 2 44 7 0 
396 1 45 7 0 
397 2 46 7 0 
398 2 47 7 0 
399 1 48 7 0 
400 2 49 7 0 
426 2 25 8 0 
427 1 26 8 0 
428 1 27 8 0 
429 2 28 8 0 
430 2 29 8 0 
431 2 30 8 0 
432 1 31 8 0 
433 1 32 8 0 
434 2 33 8 0 
435 1 34 8 0 
436 2 35 8 0 
437 1 36 8 0 
438 2 37 8 0 
439 2 38 8 0 
440 2 39 8 0 
441 2 40 8 0 
442 1 41 8 0 
443 2 42 8 0 
444 1 43 8 0 
445 2 44 8 0 
446 1 45 8 0 
447 2 46 8 0 
448 2 47 8 0 
449 1 48 8 0 
450 2 49 8 0 
476 2 25 9 0 
477 2 26 9 0 
478 2 27 9 0 
479 2 28 9 0 
480 2 29 9 0 
481 1 30 9 0 
482 2 31 9 0 
483 2 32 9 0 
484 1 33 9 0 
485 1 34 9 0 
486 2 35 9 0 
487 2 36 9 0 
488 1 37 9 0 
489 2 38 9 0 
490 1 39 9 0 
491 2 40 9 0 
492 2 41 9 0 
493 1 42 9 0 
494 1 43 9 0 
495 2 44 9 0 
496 2 45 9 0 
497 2 46 9 0 
498 2 47 9 0 
499 2 48 9 0 
500 1 49 9 0 
526 1 25 10 0 
527 2 26 10 0 
528 2 27 10 0 
529 2 28 10 0 
530 2 29 10 0 
531 1 30 10 0 
532 2 31 10 0 
533 1 32 10 0 
534 1 33 10 0 
535 1 34 10 0 
536 1 35 10 0 
537 1 36 10 0 
538 1 37 10 0 
539 2 38 10 0 
540 2 39 10 0 
541 1 40 10 0 
542 2 41 10 0 
543 1 42 10 0 
544 1 43 10 0 
545 1 44 10 0 
546 2 45 10 0 
547 1 46 10 0 
548 1 47 10 0 
549 2 48 10 0 
550 2 49 10 0 
576 2 25 11 0 
577 1 26 11 0 
578 1 27 11 0 
579 2 28 11 0 
580 2 29 11 0 
581 2 30 11 0 
582 2 31 11 0 
583 1 32 11 0 
584 1 33 11 0 
585 2 34 11 0 
586 1 35 11 0 
587 2 36 11 0 
588 2 37 11 0 
589 1 38 11 0 
590 2 39 11 0 
591 1 40 11 0 
592 2 41 11 0 
593 2 42 11 0 
594 2 43 11 0 
595 1 44 11 0 
596 1 45 11 0 
597 1 46 11 0 
598 2 47 11 0 
599 2 48 11 0 
600 2 49 11 0 
626 2 25 12 0 
627 1 26 12 0 
628 1 27 12 0 
629 2 28 12 0 
630 1 29 12 0 
631 2 30 12 0 
632 2 31 12 0 
633 2 32 12 0 
634 2 33 12 0 
635 2 34 12 0 
636 2 35 12 0 
637 2 36 12 0 
638 2 37 12 0 
639 1 38 12 0 
640 2 39 12 0 
641 1 40 12 0 
642 2 41 12 0 
643 1 42 12 0 
644 1 43 12 0 
645 2 44 12 0 
646 2 45 12 0 
647 2 46 12 0 
648 1 47 12 0 
649 2 48 12 0 
650 2 49 12 0 
676 2 25 13 0 
677 1 26 13 0 
678 1 27 13 0 
679 1 28 13 0 
680 1 29 13 0 
681 1 30 13 0 
682 1 31 13 0 
683 2 32 13 0 
684 2 33 13 0 
685 2 34 13 0 
686 1 35 13 0 
687 1 36 13 0 
688 2 37 13 0 
689 1 38 13 0 
690 2 39 13 0 
691 2 40 13 0 
692 2 41 13 0 
693 1 42 13 0 
694 2 43 13 0 
695 2 44 13 0 
696 2 45 13 0 
697 2 46 13 0 
698 1 47 13 0 
699 1 48 13 0 
700 1 49 13 0 
726 2 25 14 0 
727 2 26 14 0 
728 2 27 14 0 
729 1 28 14 0 
730 2 29 14 0 
731 1 30 14 0 
732 2 31 14 0 
733 2 32 14 0 
734 2 33 14 0 
735 1 34 14 0 
736 2 35 14 0 
737 1 36 14 0 
738 1 37 14 0 
739 2 38 14 0 
740 1 39 14 0 
741 2 40 14 0 
742 1 41 14 0 
743 2 42 14 0 
744 2 43 14 0 
745 1 44 14 0 
746 1 45 14 0 
747 2 46 14 0 
748 2 47 14 0 
749 1 48 14 0 
750 2 49 14 0 
776 1 25 15 0 
777 2 26 15 0 
778 1 27 15 0 
779 2 28 15 0 
780 2 29 15 0 
781 2 30 15 0 
782 1 31 15 0 
783 1 32 15 0 
784 2 33 15 0 
785 2 34 15 0 
786 2 35 15 0 
787 1 36 15 0 
788 1 37 15 0 
789 2 38 15 0 
790 2 39 15 0 
791 1 40 15 0 
792 2 41 15 0 
793 2 42 15 0 
794 2 43 15 0 
795 1 44 15 0 
796 2 45 15 0 
797 1 46 15 0 
798 1 47 15 0 
799 2 48 15 0 
800 2 49 15 0 
826 1 25 16 0 
827 1 26 16 0 
828 2 27 16 0 
829 1 28 16 0 
830 1 29 16 0 
831 1 30 16 0 
832 2 31 16 0 
833 2 32 16 0 
834 1 33 16 0 
835 1 34 16 0 
836 2 35 16 0 
837 1 36 16 0 
838 2 37 16 0 
839 2 38 16 0 
840 2 39 16 0 
841 2 40 16 0 
842 2 41 16 0 
843 1 42 16 0 
844 2 43 16 0 
845 1 44 16 0 
846 1 45 16 0 
847 1 46 16 0 
848 2 47 16 0 
849 1 48 16 0 
850 1 49 16 0 
876 1 25 17 0 
877 2 26 17 0 
878 1 27 17 0 
879 1 28 17 0 
880 1 29 17 0 
881 2 30 17 0 
882 2 31 17 0 
883 1 32 17 0 
884 1 33 17 0 
885 1 34 17 0 
886 1 35 17 0 
887 1 36 17 0 
888 1 37 17 0 
889 1 38 17 0 
890 1 39 17 0 
891 2 40 17 0 
892 1 41 17 0 
893 1 42 17 0 
894 1 43 17 0 
895 2 44 17 0 
896 1 45 17 0 
897 1 46 17 0 
898 1 47 17 0 
899 2 48 17 0 
900 2 49 17 0 
926 1 25 18 0 
927 2 26 18 0 
928 2 27 18 0 
929 1 28 18 0 
930 1 29 18 0 
931 1 30 18 0 
932 1 31 18 0 
933 2 32 18 0 
934 1 33 18 0 
935 1 34 18 0 
936 2 35 18 0 
937 2 36 18 0 
938 2 37 18 0 
939 2 38 18 0 
940 2 39 18 0 
941 2 40 18 0 
942 2 41 18 0 
943 2 42 18 0 
944 1 43 18 0 
945 1 44 18 0 
946 1 45 18 0 
947 2 46 18 0 
948 1 47 18 0 
949 1 48 18 0 
950 2 49 18 0 
976 2 25 19 0 
977 2 26 19 0 
978 2 27 19 0 
979 1 28 19 0 
980 1 29 19 0 
981 2 30 19 0 
982 1 31 19 0 
983 1 32 19 0 
984 1 33 19 0 
985 2 34 19 0 
986 1 35 19 0 
987 2 36 19 0 
988 1 37 19 0 
989 1 38 19 0 
990 1 39 19 0 
991 2 40 19 0 
992 1 41 19 0 
993 1 42 19 0 
994 2 43 19 0 
995 2 44 19 0 
996 1 45 19 0 
997 2 46 19 0 
998 1 47 19 0 
999 1 48 19 0 
1000 2 49 19 0 
1026 2 25 20 0 
1027 2 26 20 0 
1028 2 27 20 0 
1029 1 28 20 0 
1030 1 29 20 0 
1031 1 30 20 0 
1032 1 31 20 0 
1033 1 32 20 0 
1034 1 33 20 0 
1035 2 34 20 0 
1036 1 35 20 0 
1037 2 36 20 0 
1038 1 37 20 0 
1039 1 38 20 0 
1040 2 39 20 0 
1041 2 40 20 0 
1042 1 41 20 0 
1043 1 42 20 0 
1044 1 43 20 0 
1045 2 44 20 0 
1046 2 45 20 0 
1047 2 46 20 0 
1048 1 47 20 0 
1049 1 48 20 0 
1050 1 49 20 0 
1076 2 25 21 0 
1077 2 26 21 0 
1078 1 27 21 0 
1079 1 28 21 0 
1080 1 29 21 0 
1081 2 30 21 0 
1082 1 31 21 0 
1083 1 32 21 0 
1084 2 33 21 0 
1085 1 34 21 0 
1086 2 35 21 0 
1087 1 36 21 0 
1088 1 37 21 0 
1089 2 38 21 0 
1090 1 39 21 0 
1091 2 40 21 0 
1092 2 41 21 0 
1093 1 42 21 0 
1094 2 43 21 0 
1095 1 44 21 0 
1096 1 45 21 0 
1097 2 46 21 0 
1098 1 47 21 0 
1099 1 48 21 0 
1100 1 49 21 0 
1126 1 25 22 0 
1127 1 26 22 0 
1128 2 27 22 0 
1129 2 28 22 0 
1130 2 29 22 0 
1131 1 30 22 0 
1132 2 31 22 0 
1133 1 32 22 0 
1134 1 33 22 0 
1135 2 34 22 0 
1136 1 35 22 0 
1137 2 36 22 0 
1138 2 37 22 0 
1139 2 38 22 0 
1140 2 39 22 0 
1141 2 40 22 0 
1142 1 41 22 0 
1143 2 42 22 0 
1144 2 43 22 0 
1145 2 44 22 0 
1146 2 45 22 0 
1147 2 46 22 0 
1148 2 47 22 0 
1149 1 48 22 0 
1150 1 49 22 0 
1176 1 25 23 0 
1177 1 26 23 0 
1178 1 27 23 0 
1179 1 28 23 0 
1180 1 29 23 0 
1181 1 30 23 0 
1182 1 31 23 0 
1183 2 32 23 0 
1184 1 33 23 0 
1185 1 34 23 0 
1186 2 35 23 0 
1187 2 36 23 0 
1188 1 37 23 0 
1189 1 38 23 0 
1190 1 39 23 0 
1191 1 40 23 0 
1192 1 41 23 0 
1193 2 42 23 0 
1194 2 43 23 0 
1195 1 44 23 0 
1196 2 45 23 0 
1197 1 46 23 0 
1198 2 47 23 0 
1199 2 48 23 0 
1200 1 49 23 0 
1226 1 25 24 0 
1227 1 26 24 0 
1228 2 27 24 0 
1229 2 28 24 0 
1230 1 29 24 0 
1231 1 30 24 0 
1232 2 31 24 0 
1233 1 32 24 0 
1234 2 33 24 0 
1235 1 34 24 0 
1236 1 35 24 0 
1237 2 36 24 0 
1238 1 37 24 0 
1239 2 38 24 0 
1240 2 39 24 0 
1241 2 40 24 0 
1242 1 41 24 0 
1243 1 42 24 0 
1244 2 43 24 0 
1245 1 44 24 0 
1246 2 45 24 0 
1247 2 46 24 0 
1248 1 47 24 0 
1249 1 48 24 0 
1250 2 49 24 0 
1251 2 0 25 0 
1252 2 1 25 0 
1253 2 2 25 0 
1254 1 3 25 0 
1255 1 4 25 0 
1256 2 5 25 0 
1257 1 6 25 0 
1258 2 7 25 0 
1259 2 8 25 0 
1260 2 9 25 0 
1261 1 10 25 0 
1262 1 11 25 0 
1263 1 12 25 0 
1264 2 13 25 0 
1265 1 14 25 0 
1266 2 15 25 0 
1267 1 16 25 0 
1268 2 17 25 0 
1269 2 18 25 0 
1270 2 19 25 0 
1271 2 20 25 0 
1272 1 21 25 0 
1273 1 22 25 0 
1274 2 23 25 0 
1275 1 24 25 0 
1301 1 0 26 0 
1302 1 1 26 0 
1303 1 2 26 0 
1304 1 3 26 0 
1305 1 4 26 0 
1306 2 5 26 0 
1307 2 6 26 0 
1308 1 7 26 0 
1309 1 8 26 0 
1310 1 9 26 0 
1311 2 10 26 0 
1312 2 11 26 0 
1313 1 12 26 0 
1314 1 13 26 0 
1315 1 14 26 0 
1316 1 15 26 0 
1317 2 16 26 0 
1318 2 17 26 0 
1319 1 18 26 0 
1320 1 19 26 0 
1321 1 20 26 0 
1322 2 21 26 0 
1323 2 22 26 0 
1324 1 23 26 0 
1325 1 24 26 0 
1351 1 0 27 0 
1352 1 1 27 0 
1353 2 2 27 0 
1354 2 3 27 0 
1355 2 4 27 0 
1356 2 5 27 0 
1357 1 6 27 0 
1358 2 7 27 0 
1359 2 8 27 0 
1360 2 9 27 0 
1361 1 10 27 0 
1362 2 11 27 0 
1363 1 12 27 0 
1364 2 13 27 0 
1365 2 14 27 0 
1366 2 15 27 0 
1367 2 16 27 0 
1368 1 17 27 0 
1369 2 18 27 0 
1370 2 19 27 0 
1371 1 20 27 0 
1372 1 21 27 0 
1373 2 22 27 0 
1374 2 23 27 0 
1375 1 24 27 0 
1401 2 0 28 0 
1402 1 1 28 0 
1403 2 2 28 0 
1404 2 3 28 0 
1405 2 4 28 0 
1406 2 5 28 0 
1407 2 6 28 0 
1408 2 7 28 0 
1409 1 8 28 0 
1410 1 9 28 0 
1411 2 10 28 0 
1412 2 11 28 0 
1413 2 12 28 0 
1414 1 13 28 0 
1415 2 14 28 0 
1416 2 15 28 0 
1417 1 16 28 0 
1418 2 17 28 0 
1419 2 18 28 0 
1420 1 19 28 0 
1421 2 20 28 0 
1422 2 21 28 0 
1423 1 22 28 0 
1424 2 23 28 0 
1425 2 24 28 0 
1451 1 0 29 0 
1452 1 1 29 0 
1453 1 2 29 0 
1454 2 3 29 0 
1455 2 4 29 0 
1456 1 5 29 0 
1457 1 6 29 0 
1458 1 7 29 0 
1459 1 8 29 0 
1460 2 9 29 0 
1461 2 10 29 0 
1462 2 11 29 0 
1463 1 12 29 0 
1464 2 13 29 0 
1465 1 14 29 0 
1466 2 15 29 0 
1467 2 16 29 0 
1468 2 17 29 0 
1469 2 18 29 0 
1470 2 19 29 0 
1471 1 20 29 0 
1472 2 21 29 0 
1473 2 22 29 0 
1474 2 23 29 0 
1475 1 24 29 0 
1501 1 0 30 0 
1502 2 1 30 0 
1503 2 2 30 0 
1504 1 3 30 0 
1505 2 4 30 0 
1506 2 5 30 0 
1507 1 6 30 0 
1508 1 7 30 0 
1509 1 8 30 0 
1510 2 9 30 0 
1511 1 10 30 0 
1512 2 11 30 0 
1513 2 12 30 0 
1514 2 13 30 0 
1515 2 14 30 0 
1516 2 15 30 0 
1517 2 16 30 0 
1518 2 17 30 0 
1519 2 18 30 0 
1520 2 19 30 0 
1521 1 20 30 0 
1522 2 21 30 0 
1523 2 22 30 0 
1524 2 23 30 0 
1525 1 24 30 0 
1551 2 0 31 0 
1552 1 1 31 0 
1553 2 2 31 0 
1554 2 3 31 0 
1555 1 4 31 0 
1556 2 5 31 0 
1557 1 6 31 0 
1558 2 7 31 0 
1559 2 8 31 0 
1560 2 9 31 0 
1561 2 10 31 0 
1562 1 11 31 0 
1563 2 12 31 0 
1564 1 13 31 0 
1565 2 14 31 0 
1566 1 15 31 0 
1567 2 16 31 0 
1568 2 17 31 0 
1569 2 18 31 0 
1570 1 19 31 0 
1571 2 20 31 0 
1572 2 21 31 0 
1573 2 22 31 0 
1574 1 23 31 0 
1575 1 24 31 0 
1601 1 0 32 0 
1602 1 1 32 0 
1603 1 2 32 0 
1604 2 3 32 0 
1605 2 4 32 0 
1606 1 5 32 0 
1607 2 6 32 0 
1608 1 7 32 0 
1609 2 8 32 0 
1610 1 9 32 0 
1611 1 10 32 0 
1612 2 11 32 0 
1613 1 12 32 0 
1614 1 13 32 0 
1615 2 14 32 0 
1616 1 15 32 0 
1617 1 16 32 0 
1618 1 17 32 0 
1619 1 18 32 0 
1620 2 19 32 0 
1621 2 20 32 0 
1622 2 21 32 0 
1623 2 22 32 0 
1624 1 23 32 0 
1625 2 24 32 0 
1651 1 0 33 0 
1652 2 1 33 0 
1653 1 2 33 0 
1654 2 3 33 0 
1655 1 4 33 0 
1656 1 5 33 0 
1657 2 6 33 0 
1658 2 7 33 0 
1659 1 8 33 0 
1660 2 9 33 0 
1661 1 10 33 0 
1662 2 11 33 0 
1663 2 12 33 0 
1664 1 13 33 0 
1665 2 14 33 0 
1666 2 15 33 0 
1667 2 16 33 0 
1668 2 17 33 0 
1669 2 18 33 0 
1670 2 19 33 0 
1671 1 20 33 0 
1672 2 21 33 0 
1673 1 22 33 0 
1674 2 23 33 0 
1675 2 24 33 0 
1701 2 0 34 0 
1702 1 1 34 0 
1703 1 2 34 0 
1704 1 3 34 0 
1705 1 4 34 0 
1706 2 5 34 0 
1707 1 6 34 0 
1708 1 7 34 0 
1709 1 8 34 0 
1710 2 9 34 0 
1711 2 10 34 0 
1712 1 11 34 0 
1713 1 12 34 0 
1714 2 13 34 0 
1715 2 14 34 0 
1716 1 15 34 0 
1717 1 16 34 0 
1718 2 17 34 0 
1719 2 18 34 0 
1720 2 19 34 0 
1721 2 20 34 0 
1722 1 21 34 0 
1723 2 22 34 0 
1724 1 23 34 0 
1725 2 24 34 0 
1751 1 0 35 0 
1752 2 1 35 0 
1753 2 2 35 0 
1754 1 3 35 0 
1755 2 4 35 0 
1756 1 5 35 0 
1757 1 6 35 0 
1758 1 7 35 0 
1759 2 8 35 0 
1760 1 9 35 0 
1761 2 10 35 0 
1762 2 11 35 0 
1763 2 12 35 0 
1764 2 13 35 0 
1765 1 14 35 0 
1766 2 15 35 0 
1767 1 16 35 0 
1768 1 17 35 0 
1769 1 18 35 0 
1770 1 19 35 0 
1771 1 20 35 0 
1772 1 21 35 0 
1773 1 22 35 0 
1774 2 23 35 0 
1775 1 24 35 0 
1801 1 0 36 0 
1802 2 1 36 0 
1803 1 2 36 0 
1804 2 3 36 0 
1805 2 4 36 0 
1806 1 5 36 0 
1807 2 6 36 0 
1808 1 7 36 0 
1809 2 8 36 0 
1810 1 9 36 0 
1811 2 10 36 0 
1812 1 11 36 0 
1813 1 12 36 0 
1814 1 13 36 0 
1815 1 14 36 0 
1816 1 15 36 0 
1817 2 16 36 0 
1818 2 17 36 0 
1819 1 18 36 0 
1820 2 19 36 0 
1821 1 20 36 0 
1822 1 21 36 0 
1823 1 22 36 0 
1824 1 23 36 0 
1825 2 24 36 0 
1851 2 0 37 0 
1852 2 1 37 0 
1853 1 2 37 0 
1854 1 3 37 0 
1855 2 4 37 0 
1856 1 5 37 0 
1857 2 6 37 0 
1858 2 7 37 0 
1859 2 8 37 0 
1860 2 9 37 0 
1861 2 10 37 0 
1862 1 11 37 0 
1863 2 12 37 0 
1864 1 13 37 0 
1865 2 14 37 0 
1866 1 15 37 0 
1867 2 16 37 0 
1868 1 17 37 0 
1869 1 18 37 0 
1870 1 19 37 0 
1871 2 20 37 0 
1872 2 21 37 0 
1873 1 22 37 0 
1874 1 23 37 0 
1875 1 24 37 0 
1901 1 0 38 0 
1902 1 1 38 0 
1903 1 2 38 0 
1904 1 3 38 0 
1905 1 4 38 0 
1906 1 5 38 0 
1907 2 6 38 0 
1908 2 7 38 0 
1909 1 8 38 0 
1910 1 9 38 0 
1911 1 10 38 0 
1912 2 11 38 0 
1913 1 12 38 0 
1914 1 13 38 0 
1915 2 14 38 0 
1916 2 15 38 0 
1917 1 16 38 0 
1918 1 17 38 0 
1919 1 18 38 0 
1920 2 19 38 0 
1921 2 20 38 0 
1922 2 21 38 0 
1923 2 22 38 0 
1924 1 23 38 0 
1925 1 24 38 0 
1951 1 0 39 0 
1952 2 1 39 0 
1953 2 2 39 0 
1954 1 3 39 0 
1955 1 4 39 0 
1956 1 5 39 0 
1957 2 6 39 0 
1958 1 7 39 0 
1959 2 8 39 0 
1960 2 9 39 0 
1961 2 10 39 0 
1962 1 11 39 0 
1963 1 12 39 0 
1964 1 13 39 0 
1965 1 14 39 0 
1966 1 15 39 0 
1967 1 16 39 0 
1968 1 17 39 0 
1969 1 18 39 0 
1970 2 19 39 0 
1971 2 20 39 0 
1972 1 21 39 0 
1973 2 22 39 0 
1974 1 23 39 0 
1975 2 24 39 0 
2001 2 0 40 0 
2002 1 1 40 0 
2003 2 2 40 0 
2004 2 3 40 0 
2005 1 4 40 0 
2006 2 5 40 0 
2007 2 6 40 0 
2008 1 7 40 0 
2009 2 8 40 0 
2010 1 9 40 0 
2011 2 10 40 0 
2012 2 11 40 0 
2013 2 12 40 0 
2014 1 13 40 0 
2015 2 14 40 0 
2016 1 15 40 0 
2017 1 16 40 0 
2018 2 17 40 0 
2019 2 18 40 0 
2020 1 19 40 0 
2021 1 20 40 0 
2022 1 21 40 0 
2023 1 22 40 0 
2024 2 23 40 0 
2025 1 24 40 0 
2051 2 0 41 0 
2052 2 1 41 0 
2053 1 2 41 0 
2054 2 3 41 0 
2055 1 4 41 0 
2056 1 5 41 0 
2057 1 6 41 0 
2058 2 7 41 0 
2059 1 8 41 0 
2060 2 9 41 0 
2061 1 10 41 0 
2062 1 11 41 0 
2063 1 12 41 0 
2064 1 13 41 0 
2065 2 14 41 0 
2066 2 15 41 0 
2067 2 16 41 0 
2068 1 17 41 0 
2069 1 18 41 0 
2070 2 19 41 0 
2071 2 20 41 0 
2072 1 21 41 0 
2073 1 22 41 0 
2074 1 23 41 0 
2075 1 24 41 0 
2101 1 0 42 0 
2102 2 1 42 0 
2103 2 2 42 0 
2104 1 3 42 0 
2105 1 4 42 0 
2106 2 5 42 0 
2107 1 6 42 0 
2108 1 7 42 0 
2109 1 8 42 0 
2110 1 9 42 0 
2111 1 10 42 0 
2112 2 11 42 0 
2113 2 12 42 0 
2114 2 13 42 0 
2115 2 14 42 0 
2116 1 15 42 0 
2117 1 16 42 0 
2118 1 17 42 0 
2119 2 18 42 0 
2120 1 19 42 0 
2121 2 20 42 0 
2122 2 21 42 0 
2123 1 22 42 0 
2124 2 23 42 0 
2125 2 24 42 0 
2151 1 0 43 0 
2152 1 1 43 0 
2153 1 2 43 0 
2154 2 3 43 0 
2155 2 4 43 0 
2156 2 5 43 0 
2157 1 6 43 0 
2158 1 7 43 0 
2159 2 8 43 0 
2160 1 9 43 0 
2161 2 10 43 0 
2162 2 11 43 0 
2163 2 12 43 0 
2164 2 13 43 0 
2165 1 14 43 0 
2166 2 15 43 0 
2167 1 16 43 0 
2168 1 17 43 0 
2169 2 18 43 0 
2170 1 19 43 0 
2171 1 20 43 0 
2172 1 21 43 0 
2173 2 22 43 0 
2174 1 23 43 0 
2175 2 24 43 0 
2201 2 0 44 0 
2202 2 1 44 0 
2203 1 2 44 0 
2204 1 3 44 0 
2205 2 4 44 0 
2206 2 5 44 0 
2207 2 6 44 0 
2208 1 7 44 0 
2209 2 8 44 0 
2210 2 9 44 0 
2211 2 10 44 0 
2212 1 11 44 0 
2213 2 12 44 0 
2214 1 13 44 0 
2215 2 14 44 0 
2216 2 15 44 0 
2217 2 16 44 0 
2218 1 17 44 0 
2219 1 18 44 0 
2220 2 19 44 0 
2221 1 20 44 0 
2222 1 21 44 0 
2223 2 22 44 0 
2224 2 23 44 0 
2225 2 24 44 0 
2251 2 0 45 0 
2252 2 1 45 0 
2253 2 2 45 0 
2254 2 3 45 0 
2255 2 4 45 0 
2256 2 5 45 0 
2257 2 6 45 0 
2258 1 7 45 0 
2259 1 8 45 0 
2260 2 9 45 0 
2261 1 10 45 0 
2262 2 11 45 0 
2263 2 12 45 0 
2264 2 13 45 0 
2265 2 14 45 0 
2266 1 15 45 0 
2267 2 16 45 0 
2268 1 17 45 0 
2269 1 18 45 0 
2270 2 19 45 0 
2271 2 20 45 0 
2272 1 21 45 0 
2273 1 22 45 0 
2274 2 23 45 0 
2275 2 24 45 0 
2301 1 0 46 0 
2302 2 1 46 0 
2303 2 2 46 0 
2304 1 3 46 0 
2305 1 4 46 0 
2306 2 5 46 0 
2307 2 6 46 0 
2308 2 7 46 0 
2309 1 8 46 0 
2310 1 9 46 0 
2311 1 10 46 0 
2312 1 11 46 0 
2313 1 12 46 0 
2314 1 13 46 0 
2315 2 14 46 0 
2316 1 15 46 0 
2317 2 16 46 0 
2318 1 17 46 0 
2319 2 18 46 0 
2320 2 19 46 0 
2321 2 20 46 0 
2322 1 21 46 0 
2323 1 22 46 0 
2324 1 23 46 0 
2325 2 24 46 0 
2351 2 0 47 0 
2352 1 1 47 0 
2353 1 2 47 0 
2354 1 3 47 0 
2355 2 4 47 0 
2356 1 5 47 0 
2357 2 6 47 0 
2358 1 7 47 0 
2359 1 8 47 0 
2360 2 9 47 0 
2361 1 10 47 0 
2362 1 11 47 0 
2363 2 12 47 0 
2364 1 13 47 0 
2365 2 14 47 0 
2366 1 15 47 0 
2367 2 16 47 0 
2368 2 17 47 0 
2369 2 18 47 0 
2370 2 19 47 0 
2371 2 20 47 0 
2372 1 21 47 0 
2373 1 22 47 0 
2374 1 23 47 0 
2375 1 24 47 0 
2401 1 0 48 0 
2402 2 1 48 0 
2403 2 2 48 0 
2404 1 3 48 0 
2405 2 4 48 0 
2406 1 5 48 0 
2407 1 6 48 0 
2408 2 7 48 0 
2409 1 8 48 0 
2410 1 9 48 0 
2411 1 10 48 0 
2412 2 11 48 0 
2413 1 12 48 0 
2414 1 13 48 0 
2415 2 14 48 0 
2416 2 15 48 0 
2417 2 16 48 0 
2418 1 17 48 0 
2419 1 18 48 0 
2420 2 19 48 0 
2421 2 20 48 0 
2422 2 21 48 0 
2423 1 22 48 0 
2424 1 23 48 0 
2425 1 24 48 0 
2451 2 0 49 0 
2452 1 1 49 0 
2453 1 2 49 0 
2454 2 3 49 0 
2455 1 4 49 0 
2456 2 5 49 0 
2457 1 6 49 0 
2458 2 7 49 0 
2459 1 8 49 0 
2460 1 9 49 0 
2461 1 10 49 0 
2462 1 11 49 0 
2463 2 12 49 0 
2464 2 13 49 0 
2465 1 14 49 0 
2466 1 15 49 0 
2467 1 16 49 0 
2468 1 17 49 0 
2469 1 18 49 0 
2470 1 19 49 0 
2471 1 20 49 0 
2472 2 21 49 0 
2473 2 22 49 0 
2474 1 23 49 0 
2475 1 24 49 0 
1276 2 25 25 0 
1277 1 26 25 0 
1278 2 27 25 0 
1279 1 28 25 0 
1280 2 29 25 0 
1281 1 30 25 0 
1282 1 31 25 0 
1283 1 32 25 0 
1284 1 33 25 0 
1285 2 34 25 0 
1286 2 35 25 0 
1287 1 36 25 0 
1288 2 37 25 0 
1289 2 38 25 0 
1290 1 39 25 0 
1291 2 40 25 0 
1292 2 41 25 0 
1293 1 42 25 0 
1294 2 43 25 0 
1295 1 44 25 0 
1296 1 45 25 0 
1297 1 46 25 0 
1298 1 47 25 0 
1299 2 48 25 0 
1300 1 49 25 0 
1326 2 25 26 0 
1327 1 26 26 0 
1328 2 27 26 0 
1329 2 28 26 0 
1330 2 29 26 0 
1331 1 30 26 0 
1332 1 31 26 0 
1333 2 32 26 0 
1334 1 33 26 0 
1335 1 34 26 0 
1336 2 35 26 0 
1337 1 36 26 0 
1338 1 37 26 0 
1339 1 38 26 0 
1340 1 39 26 0 
1341 1 40 26 0 
1342 2 41 26 0 
1343 2 42 26 0 
1344 2 43 26 0 
1345 2 44 26 0 
1346 1 45 26 0 
1347 1 46 26 0 
1348 1 47 26 0 
1349 1 48 26 0 
1350 1 49 26 0 
1376 1 25 27 0 
1377 2 26 27 0 
1378 1 27 27 0 
1379 1 28 27 0 
1380 2 29 27 0 
1381 1 30 27 0 
1382 2 31 27 0 
1383 1 32 27 0 
1384 1 33 27 0 
1385 2 34 27 0 
1386 2 35 27 0 
1387 1 36 27 0 
1388 2 37 27 0 
1389 2 38 27 0 
1390 1 39 27 0 
1391 2 40 27 0 
1392 2 41 27 0 
1393 1 42 27 0 
1394 2 43 27 0 
1395 1 44 27 0 
1396 2 45 27 0 
1397 1 46 27 0 
1398 2 47 27 0 
1399 1 48 27 0 
1400 2 49 27 0 
1426 1 25 28 0 
1427 2 26 28 0 
1428 1 27 28 0 
1429 2 28 28 0 
1430 1 29 28 0 
1431 1 30 28 0 
1432 2 31 28 0 
1433 1 32 28 0 
1434 2 33 28 0 
1435 1 34 28 0 
1436 1 35 28 0 
1437 2 36 28 0 
1438 2 37 28 0 
1439 1 38 28 0 
1440 2 39 28 0 
1441 1 40 28 0 
1442 1 41 28 0 
1443 2 42 28 0 
1444 1 43 28 0 
1445 2 44 28 0 
1446 2 45 28 0 
1447 2 46 28 0 
1448 1 47 28 0 
1449 2 48 28 0 
1450 1 49 28 0 
1476 1 25 29 0 
1477 2 26 29 0 
1478 1 27 29 0 
1479 1 28 29 0 
1480 2 29 29 0 
1481 1 30 29 0 
1482 1 31 29 0 
1483 1 32 29 0 
1484 1 33 29 0 
1485 1 34 29 0 
1486 2 35 29 0 
1487 1 36 29 0 
1488 2 37 29 0 
1489 2 38 29 0 
1490 1 39 29 0 
1491 2 40 29 0 
1492 2 41 29 0 
1493 1 42 29 0 
1494 2 43 29 0 
1495 2 44 29 0 
1496 2 45 29 0 
1497 2 46 29 0 
1498 2 47 29 0 
1499 2 48 29 0 