ITEM: TIMESTEP
0          0
ITEM: NUMBER OF ATOMS
8000
ITEM: BOX BOUNDS
0 20
0 20
0 20
ITEM: ATOMS id type x y z energy i1 d1
1 43 0 0 0 26 43 0 
2 56 1 0 0 26 56 0 
3 4 2 0 0 26 4 0 
4 49 3 0 0 26 49 0 
5 47 4 0 0 26 47 0 
6 53 5 0 0 26 53 0 
7 59 6 0 0 24 59 0 
8 71 7 0 0 26 71 0 
9 29 8 0 0 26 29 0 
10 99 9 0 0 26 99 0 
21 98 0 1 0 26 98 0 
22 49 1 1 0 26 49 0 
23 17 2 1 0 25 17 0 
24 65 3 1 0 26 65 0 
25 4 4 1 0 26 4 0 
26 28 5 1 0 26 28 0 
27 11 6 1 0 26 11 0 
28 55 7 1 0 26 55 0 
29 2 8 1 0 26 2 0 
30 43 9 1 0 26 43 0 
41 7 0 2 0 26 7 0 
42 10 1 2 0 26 10 0 
43 47 2 2 0 26 47 0 
44 14 3 2 0 26 14 0 
45 16 4 2 0 26 16 0 
46 10 5 2 0 26 10 0 
47 34 6 2 0 26 34 0 
48 50 7 2 0 26 50 0 
49 39 8 2 0 24 39 0 
50 39 9 2 0 24 39 0 
61 61 0 3 0 26 61 0 
62 6 1 3 0 26 6 0 
63 76 2 3 0 26 76 0 
64 49 3 3 0 26 49 0 
65 55 4 3 0 25 55 0 
66 64 5 3 0 26 64 0 
67 30 6 3 0 25 30 0 
68 72 7 3 0 26 72 0 
69 52 8 3 0 26 52 0 
70 68 9 3 0 26 68 0 
81 21 0 4 0 26 21 0 
82 39 1 4 0 26 39 0 
83 96 2 4 0 26 96 0 
84 63 3 4 0 26 63 0 
85 6 4 4 0 26 6 0 
86 57 5 4 0 26 57 0 
87 30 6 4 0 25 30 0 
88 90 7 4 0 26 90 0 
89 79 8 4 0 26 79 0 
90 43 9 4 0 26 43 0 
101 91 0 5 0 25 91 0 
102 24 1 5 0 26 24 0 
103 16 2 5 0 25 16 0 
104 85 3 5 0 26 85 0 
105 12 4 5 0 26 12 0 
106 1 5 5 0 25 1 0 
107 4 6 5 0 25 4 0 
108 65 7 5 0 26 65 0 
109 36 8 5 0 26 36 0 
110 97 9 5 0 25 97 0 
121 4 0 6 0 26 4 0 
122 26 1 6 0 26 26 0 
123 25 2 6 0 26 25 0 
124 11 3 6 0 26 11 0 
125 57 4 6 0 26 57 0 
126 78 5 6 0 26 78 0 
127 70 6 6 0 26 70 0 
128 37 7 6 0 25 37 0 
129 37 8 6 0 25 37 0 
130 1 9 6 0 25 1 0 
141 59 0 7 0 26 59 0 
142 93 1 7 0 26 93 0 
143 64 2 7 0 26 64 0 
144 92 3 7 0 26 92 0 
145 86 4 7 0 26 86 0 
146 77 5 7 0 26 77 0 
147 92 6 7 0 25 92 0 
148 92 7 7 0 25 92 0 
149 13 8 7 0 26 13 0 
150 1 9 7 0 25 1 0 
161 81 0 8 0 26 81 0 
162 84 1 8 0 26 84 0 
163 25 2 8 0 26 25 0 
164 91 3 8 0 26 91 0 
165 97 4 8 0 26 97 0 
166 98 5 8 0 26 98 0 
167 20 6 8 0 26 20 0 
168 98 7 8 0 26 98 0 
169 18 8 8 0 26 18 0 
170 5 9 8 0 26 5 0 
181 76 0 9 0 26 76 0 
182 17 1 9 0 26 17 0 
183 38 2 9 0 26 38 0 
184 66 3 9 0 26 66 0 
185 83 4 9 0 26 83 0 
186 82 5 9 0 26 82 0 
187 96 6 9 0 26 96 0 
188 83 7 9 0 26 83 0 
189 81 8 9 0 26 81 0 
190 6 9 9 0 26 6 0 
401 21 0 0 1 26 21 0 
402 42 1 0 1 26 42 0 
403 60 2 0 1 26 60 0 
404 2 3 0 1 26 2 0 
405 33 4 0 1 26 33 0 
406 50 5 0 1 25 50 0 
407 14 6 0 1 25 14 0 
408 26 7 0 1 25 26 0 
409 93 8 0 1 25 93 0 
410 42 9 0 1 25 42 0 
421 68 0 1 1 25 68 0 
422 58 1 1 1 26 58 0 
423 24 2 1 1 26 24 0 
424 17 3 1 1 24 17 0 
425 39 4 1 1 24 39 0 
426 84 5 1 1 26 84 0 
427 13 6 1 1 26 13 0 
428 27 7 1 1 26 27 0 
429 84 8 1 1 26 84 0 
430 93 9 1 1 25 93 0 
441 86 0 2 1 26 86 0 
442 27 1 2 1 26 27 0 
443 81 2 2 1 26 81 0 
444 9 3 2 1 26 9 0 
445 77 4 2 1 26 77 0 
446 39 5 2 1 24 39 0 
447 92 6 2 1 26 92 0 
448 54 7 2 1 26 54 0 
449 13 8 2 1 26 13 0 
450 74 9 2 1 26 74 0 
461 8 0 3 1 26 8 0 
462 66 1 3 1 26 66 0 
463 32 2 3 1 26 32 0 
464 71 3 3 1 26 71 0 
465 35 4 3 1 25 35 0 
466 85 5 3 1 26 85 0 
467 97 6 3 1 26 97 0 
468 6 7 3 1 26 6 0 
469 46 8 3 1 26 46 0 
470 37 9 3 1 26 37 0 
481 48 0 4 1 26 48 0 
482 87 1 4 1 26 87 0 
483 82 2 4 1 26 82 0 
484 29 3 4 1 26 29 0 
485 43 4 4 1 26 43 0 
486 88 5 4 1 26 88 0 
487 51 6 4 1 25 51 0 
488 12 7 4 1 25 12 0 
489 59 8 4 1 26 59 0 
490 21 9 4 1 26 21 0 
501 74 0 5 1 26 74 0 
502 31 1 5 1 26 31 0 
503 100 2 5 1 26 100 0 
504 19 3 5 1 26 19 0 
505 41 4 5 1 26 41 0 
506 11 5 5 1 26 11 0 
507 51 6 5 1 24 51 0 
508 41 7 5 1 26 41 0 
509 89 8 5 1 26 89 0 
510 24 9 5 1 26 24 0 
521 94 0 6 1 25 94 0 
522 69 1 6 1 26 69 0 
523 74 2 6 1 26 74 0 
524 23 3 6 1 26 23 0 
525 24 4 6 1 26 24 0 
526 43 5 6 1 25 43 0 
527 53 6 6 1 26 53 0 
528 75 7 6 1 26 75 0 
529 79 8 6 1 26 79 0 
530 97 9 6 1 25 97 0 
541 10 0 7 1 26 10 0 
542 57 1 7 1 26 57 0 
543 38 2 7 1 26 38 0 
544 39 3 7 1 26 39 0 
545 43 4 7 1 25 43 0 
546 80 5 7 1 26 80 0 
547 10 6 7 1 26 10 0 
548 50 7 7 1 25 50 0 
549 76 8 7 1 26 76 0 
550 73 9 7 1 26 73 0 
561 23 0 8 1 26 23 0 
562 15 1 8 1 26 15 0 
563 27 2 8 1 25 27 0 
564 5 3 8 1 26 5 0 
565 54 4 8 1 26 54 0 
566 32 5 8 1 26 32 0 
567 74 6 8 1 26 74 0 
568 3 7 8 1 26 3 0 
569 58 8 8 1 26 58 0 
570 82 9 8 1 26 82 0 
581 70 0 9 1 26 70 0 
582 60 1 9 1 26 60 0 
583 50 2 9 1 26 50 0 
584 35 3 9 1 26 35 0 
585 58 4 9 1 26 58 0 
586 36 5 9 1 26 36 0 
587 55 6 9 1 26 55 0 
588 57 7 9 1 26 57 0 
589 32 8 9 1 26 32 0 
590 55 9 9 1 26 55 0 
801 24 0 0 2 26 24 0 
802 3 1 0 2 26 3 0 
803 54 2 0 2 26 54 0 
804 83 3 0 2 26 83 0 
805 17 4 0 2 25 17 0 
806 91 5 0 2 25 91 0 
807 91 6 0 2 25 91 0 
808 26 7 0 2 25 26 0 
809 45 8 0 2 25 45 0 
810 99 9 0 2 26 99 0 
821 20 0 1 2 26 20 0 
822 55 1 1 2 26 55 0 
823 82 2 1 2 26 82 0 
824 93 3 1 2 24 93 0 
825 50 4 1 2 25 50 0 
826 39 5 1 2 24 39 0 
827 28 6 1 2 26 28 0 
828 74 7 1 2 26 74 0 
829 5 8 1 2 25 5 0 
830 45 9 1 2 25 45 0 
841 68 0 2 2 25 68 0 
842 51 1 2 2 26 51 0 
843 7 2 2 2 26 7 0 
844 92 3 2 2 26 92 0 
845 19 4 2 2 26 19 0 
846 44 5 2 2 26 44 0 
847 35 6 2 2 26 35 0 
848 76 7 2 2 26 76 0 
849 35 8 2 2 26 35 0 
850 22 9 2 2 26 22 0 
861 95 0 3 2 24 95 0 
862 64 1 3 2 26 64 0 
863 33 2 3 2 26 33 0 
864 89 3 3 2 25 89 0 
865 26 4 3 2 26 26 0 
866 18 5 3 2 26 18 0 
867 45 6 3 2 26 45 0 
868 79 7 3 2 26 79 0 
869 86 8 3 2 26 86 0 
870 10 9 3 2 26 10 0 
881 82 0 4 2 26 82 0 
882 96 1 4 2 25 96 0 
883 6 2 4 2 25 6 0 
884 35 3 4 2 24 35 0 
885 31 4 4 2 26 31 0 
886 48 5 4 2 26 48 0 
887 38 6 4 2 26 38 0 
888 12 7 4 2 25 12 0 
889 35 8 4 2 26 35 0 
890 2 9 4 2 26 2 0 
901 52 0 5 2 26 52 0 
902 96 1 5 2 25 96 0 
903 35 2 5 2 25 35 0 
904 65 3 5 2 26 65 0 
905 81 4 5 2 26 81 0 
906 55 5 5 2 26 55 0 
907 60 6 5 2 26 60 0 
908 69 7 5 2 26 69 0 
909 27 8 5 2 26 27 0 
910 93 9 5 2 26 93 0 
921 91 0 6 2 26 91 0 
922 17 1 6 2 26 17 0 
923 55 2 6 2 26 55 0 
924 5 3 6 2 26 5 0 
925 93 4 6 2 26 93 0 
926 27 5 6 2 26 27 0 
927 74 6 6 2 26 74 0 
928 51 7 6 2 25 51 0 
929 35 8 6 2 25 35 0 
930 33 9 6 2 25 33 0 
941 81 0 7 2 26 81 0 
942 65 1 7 2 26 65 0 
943 58 2 7 2 26 58 0 
944 34 3 7 2 26 34 0 
945 19 4 7 2 26 19 0 
946 15 5 7 2 26 15 0 
947 92 6 7 2 26 92 0 
948 50 7 7 2 25 50 0 
949 43 8 7 2 26 43 0 
950 74 9 7 2 26 74 0 
961 72 0 8 2 26 72 0 
962 47 1 8 2 26 47 0 
963 62 2 8 2 26 62 0 
964 76 3 8 2 26 76 0 
965 68 4 8 2 26 68 0 
966 48 5 8 2 26 48 0 
967 37 6 8 2 26 37 0 
968 9 7 8 2 26 9 0 
969 88 8 8 2 26 88 0 
970 66 9 8 2 26 66 0 
981 51 0 9 2 26 51 0 
982 27 1 9 2 25 27 0 
983 34 2 9 2 26 34 0 
984 15 3 9 2 26 15 0 
985 83 4 9 2 26 83 0 
986 21 5 9 2 26 21 0 
987 77 6 9 2 26 77 0 
988 24 7 9 2 26 24 0 
989 48 8 9 2 26 48 0 
990 5 9 9 2 26 5 0 
1201 46 0 0 3 25 46 0 
1202 27 1 0 3 26 27 0 
1203 93 2 0 3 25 93 0 
1204 21 3 0 3 26 21 0 
1205 66 4 0 3 26 66 0 
1206 78 5 0 3 26 78 0 
1207 83 6 0 3 26 83 0 
1208 5 7 0 3 25 5 0 
1209 96 8 0 3 26 96 0 
1210 86 9 0 3 26 86 0 
1221 31 0 1 3 26 31 0 
1222 32 1 1 3 26 32 0 
1223 100 2 1 3 26 100 0 
1224 33 3 1 3 26 33 0 
1225 93 4 1 3 25 93 0 
1226 22 5 1 3 26 22 0 
1227 25 6 1 3 26 25 0 
1228 86 7 1 3 26 86 0 
1229 90 8 1 3 26 90 0 
1230 10 9 1 3 26 10 0 
1241 67 0 2 3 25 67 0 
1242 36 1 2 3 26 36 0 
1243 34 2 2 3 26 34 0 
1244 89 3 2 3 25 89 0 
1245 21 4 2 3 26 21 0 
1246 98 5 2 3 26 98 0 
1247 84 6 2 3 26 84 0 
1248 21 7 2 3 25 21 0 
1249 44 8 2 3 26 44 0 
1250 71 9 2 3 26 71 0 
1261 17 0 3 3 26 17 0 
1262 16 1 3 3 26 16 0 
1263 38 2 3 3 26 38 0 
1264 91 3 3 3 25 91 0 
1265 45 4 3 3 26 45 0 
1266 72 5 3 3 26 72 0 
1267 36 6 3 3 26 36 0 
1268 92 7 3 3 26 92 0 
1269 74 8 3 3 26 74 0 
1270 56 9 3 3 26 56 0 
1281 7 0 4 3 26 7 0 
1282 43 1 4 3 25 43 0 
1283 26 2 4 3 26 26 0 
1284 6 3 4 3 25 6 0 
1285 92 4 4 3 26 92 0 
1286 76 5 4 3 26 76 0 
1287 28 6 4 3 26 28 0 
1288 94 7 4 3 26 94 0 
1289 72 8 4 3 26 72 0 
1290 29 9 4 3 26 29 0 
1301 20 0 5 3 25 20 0 
1302 43 1 5 3 25 43 0 
1303 38 2 5 3 26 38 0 
1304 15 3 5 3 26 15 0 
1305 16 4 5 3 26 16 0 
1306 61 5 5 3 26 61 0 
1307 73 6 5 3 26 73 0 
1308 30 7 5 3 26 30 0 
1309 33 8 5 3 23 33 0 
1310 23 9 5 3 26 23 0 
1321 20 0 6 3 25 20 0 
1322 85 1 6 3 26 85 0 
1323 83 2 6 3 26 83 0 
1324 17 3 6 3 26 17 0 
1325 43 4 6 3 26 43 0 
1326 85 5 6 3 26 85 0 
1327 5 6 6 3 26 5 0 
1328 62 7 6 3 26 62 0 
1329 88 8 6 3 25 88 0 
1330 95 9 6 3 25 95 0 
1341 30 0 7 3 26 30 0 
1342 97 1 7 3 26 97 0 
1343 80 2 7 3 26 80 0 
1344 59 3 7 3 25 59 0 
1345 92 4 7 3 25 92 0 
1346 33 5 7 3 26 33 0 
1347 12 6 7 3 26 12 0 
1348 2 7 7 3 26 2 0 
1349 36 8 7 3 26 36 0 
1350 35 9 7 3 25 35 0 
1361 5 0 8 3 26 5 0 
1362 76 1 8 3 26 76 0 
1363 36 2 8 3 26 36 0 
1364 99 3 8 3 26 99 0 
1365 79 4 8 3 26 79 0 
1366 95 5 8 3 26 95 0 
1367 71 6 8 3 26 71 0 
1368 31 7 8 3 26 31 0 
1369 95 8 8 3 26 95 0 
1370 76 9 8 3 25 76 0 
1381 30 0 9 3 26 30 0 
1382 66 1 9 3 26 66 0 
1383 46 2 9 3 25 46 0 
1384 50 3 9 3 26 50 0 
1385 92 4 9 3 25 92 0 
1386 76 5 9 3 26 76 0 
1387 1 6 9 3 26 1 0 
1388 82 7 9 3 26 82 0 
1389 76 8 9 3 25 76 0 
1390 26 9 9 3 26 26 0 
1601 50 0 0 4 26 50 0 
1602 34 1 0 4 26 34 0 
1603 7 2 0 4 26 7 0 
1604 97 3 0 4 26 97 0 
1605 83 4 0 4 26 83 0 
1606 26 5 0 4 26 26 0 
1607 53 6 0 4 25 53 0 
1608 40 7 0 4 26 40 0 
1609 80 8 0 4 26 80 0 
1610 8 9 0 4 26 8 0 
1621 90 0 1 4 26 90 0 
1622 76 1 1 4 26 76 0 
1623 96 2 1 4 26 96 0 
1624 2 3 1 4 26 2 0 
1625 86 4 1 4 26 86 0 
1626 14 5 1 4 24 14 0 
1627 43 6 1 4 26 43 0 
1628 21 7 1 4 25 21 0 
1629 30 8 1 4 26 30 0 
1630 62 9 1 4 26 62 0 
1641 85 0 2 4 26 85 0 
1642 71 1 2 4 26 71 0 
1643 7 2 2 4 26 7 0 
1644 47 3 2 4 26 47 0 
1645 91 4 2 4 24 91 0 
1646 58 5 2 4 25 58 0 
1647 69 6 2 4 26 69 0 
1648 79 7 2 4 26 79 0 
1649 95 8 2 4 26 95 0 
1650 77 9 2 4 26 77 0 
1661 30 0 3 4 26 30 0 
1662 55 1 3 4 26 55 0 
1663 82 2 3 4 26 82 0 
1664 5 3 3 4 26 5 0 
1665 55 4 3 4 26 55 0 
1666 91 5 3 4 25 91 0 
1667 59 6 3 4 26 59 0 
1668 76 7 3 4 26 76 0 
1669 93 8 3 4 26 93 0 
1670 94 9 3 4 26 94 0 
1681 15 0 4 4 26 15 0 
1682 37 1 4 4 26 37 0 
1683 56 2 4 4 26 56 0 
1684 77 3 4 4 26 77 0 
1685 63 4 4 4 26 63 0 
1686 77 5 4 4 26 77 0 
1687 49 6 4 4 26 49 0 
1688 79 7 4 4 26 79 0 
1689 81 8 4 4 26 81 0 
1690 60 9 4 4 26 60 0 
1701 60 0 5 4 26 60 0 
1702 19 1 5 4 26 19 0 
1703 35 2 5 4 26 35 0 
1704 24 3 5 4 26 24 0 
1705 29 4 5 4 26 29 0 
1706 52 5 5 4 26 52 0 
1707 19 6 5 4 26 19 0 
1708 33 7 5 4 24 33 0 
1709 33 8 5 4 24 33 0 
1710 90 9 5 4 25 90 0 
1721 79 0 6 4 26 79 0 
1722 25 1 6 4 26 25 0 
1723 86 2 6 4 26 86 0 
1724 8 3 6 4 26 8 0 
1725 51 4 6 4 26 51 0 
1726 4 5 6 4 26 4 0 
1727 42 6 6 4 26 42 0 
1728 72 7 6 4 26 72 0 
1729 88 8 6 4 25 88 0 
1730 90 9 6 4 25 90 0 
1741 26 0 7 4 26 26 0 
1742 53 1 7 4 26 53 0 
1743 65 2 7 4 26 65 0 
1744 40 3 7 4 26 40 0 
1745 25 4 7 4 26 25 0 
1746 68 5 7 4 26 68 0 
1747 10 6 7 4 26 10 0 
1748 74 7 7 4 26 74 0 
1749 84 8 7 4 26 84 0 
1750 43 9 7 4 26 43 0 
1761 68 0 8 4 26 68 0 
1762 74 1 8 4 26 74 0 
1763 59 2 8 4 25 59 0 
1764 92 3 8 4 24 92 0 
1765 47 4 8 4 26 47 0 
1766 69 5 8 4 26 69 0 
1767 3 6 8 4 26 3 0 
1768 15 7 8 4 26 15 0 
1769 49 8 8 4 26 49 0 
1770 12 9 8 4 26 12 0 
1781 15 0 9 4 26 15 0 
1782 13 1 9 4 26 13 0 
1783 52 2 9 4 25 52 0 
1784 10 3 9 4 26 10 0 
1785 91 4 9 4 25 91 0 
1786 62 5 9 4 26 62 0 
1787 9 6 9 4 25 9 0 
1788 47 7 9 4 25 47 0 
1789 55 8 9 4 25 55 0 
1790 55 9 9 4 25 55 0 
2001 84 0 0 5 26 84 0 
2002 44 1 0 5 26 44 0 
2003 68 2 0 5 26 68 0 
2004 76 3 0 5 26 76 0 
2005 14 4 0 5 24 14 0 
2006 53 5 0 5 25 53 0 
2007 84 6 0 5 26 84 0 
2008 11 7 0 5 26 11 0 
2009 97 8 0 5 26 97 0 
2010 44 9 0 5 26 44 0 
2021 28 0 1 5 26 28 0 
2022 14 1 1 5 25 14 0 
2023 14 2 1 5 25 14 0 
2024 95 3 1 5 26 95 0 
2025 14 4 1 5 24 14 0 
2026 99 5 1 5 26 99 0 
2027 12 6 1 5 26 12 0 
2028 16 7 1 5 26 16 0 
2029 47 8 1 5 26 47 0 
2030 4 9 1 5 25 4 0 
2041 54 0 2 5 26 54 0 
2042 78 1 2 5 26 78 0 
2043 99 2 2 5 26 99 0 
2044 48 3 2 5 25 48 0 
2045 19 4 2 5 26 19 0 
2046 97 5 2 5 26 97 0 
2047 86 6 2 5 26 86 0 
2048 51 7 2 5 26 51 0 
2049 12 8 2 5 25 12 0 
2050 76 9 2 5 26 76 0 
2061 41 0 3 5 26 41 0 
2062 2 1 3 5 26 2 0 
2063 10 2 3 5 26 10 0 
2064 35 3 3 5 26 35 0 
2065 58 4 3 5 25 58 0 
2066 68 5 3 5 26 68 0 
2067 78 6 3 5 26 78 0 
2068 12 7 3 5 25 12 0 
2069 4 8 3 5 25 4 0 
2070 63 9 3 5 26 63 0 
2081 72 0 4 5 26 72 0 
2082 81 1 4 5 26 81 0 
2083 43 2 4 5 26 43 0 
2084 69 3 4 5 26 69 0 
2085 38 4 4 5 26 38 0 
2086 53 5 4 5 25 53 0 
2087 22 6 4 5 26 22 0 
2088 51 7 4 5 26 51 0 
2089 15 8 4 5 25 15 0 
2090 10 9 4 5 26 10 0 
2101 3 0 5 5 26 3 0 
2102 94 1 5 5 26 94 0 
2103 63 2 5 5 26 63 0 
2104 12 3 5 5 26 12 0 
2105 23 4 5 5 26 23 0 
2106 85 5 5 5 26 85 0 
2107 23 6 5 5 25 23 0 
2108 11 7 5 5 26 11 0 
2109 24 8 5 5 26 24 0 
2110 39 9 5 5 26 39 0 
2121 67 0 6 5 26 67 0 
2122 52 1 6 5 26 52 0 
2123 5 2 6 5 26 5 0 
2124 95 3 6 5 26 95 0 
2125 75 4 6 5 26 75 0 
2126 21 5 6 5 25 21 0 
2127 84 6 6 5 26 84 0 
2128 48 7 6 5 25 48 0 
2129 10 8 6 5 26 10 0 
2130 92 9 6 5 26 92 0 
2141 63 0 7 5 26 63 0 
2142 37 1 7 5 26 37 0 
2143 4 2 7 5 26 4 0 
2144 83 3 7 5 26 83 0 
2145 19 4 7 5 26 19 0 
2146 96 5 7 5 26 96 0 
2147 28 6 7 5 26 28 0 
2148 86 7 7 5 26 86 0 
2149 7 8 7 5 26 7 0 
2150 82 9 7 5 26 82 0 
2161 69 0 8 5 26 69 0 
2162 76 1 8 5 26 76 0 
2163 63 2 8 5 26 63 0 
2164 95 3 8 5 26 95 0 
2165 11 4 8 5 26 11 0 
2166 81 5 8 5 26 81 0 
2167 13 6 8 5 26 13 0 
2168 47 7 8 5 25 47 0 
2169 68 8 8 5 26 68 0 
2170 47 9 8 5 26 47 0 
2181 1 0 9 5 26 1 0 
2182 11 1 9 5 26 11 0 
2183 78 2 9 5 26 78 0 
2184 41 3 9 5 26 41 0 
2185 91 4 9 5 25 91 0 
2186 24 5 9 5 26 24 0 
2187 89 6 9 5 26 89 0 
2188 8 7 9 5 26 8 0 
2189 37 8 9 5 26 37 0 
2190 2 9 9 5 26 2 0 
2401 45 0 0 6 26 45 0 
2402 88 1 0 6 26 88 0 
2403 83 2 0 6 26 83 0 
2404 31 3 0 6 26 31 0 
2405 90 4 0 6 26 90 0 
2406 35 5 0 6 26 35 0 
2407 48 6 0 6 25 48 0 
2408 74 7 0 6 25 74 0 
2409 48 8 0 6 26 48 0 
2410 26 9 0 6 25 26 0 
2421 94 0 1 6 25 94 0 
2422 87 1 1 6 26 87 0 
2423 21 2 1 6 26 21 0 
2424 46 3 1 6 26 46 0 
2425 48 4 1 6 24 48 0 
2426 93 5 1 6 26 93 0 
2427 28 6 1 6 26 28 0 
2428 29 7 1 6 26 29 0 
2429 79 8 1 6 26 79 0 
2430 8 9 1 6 26 8 0 
2441 62 0 2 6 25 62 0 
2442 81 1 2 6 26 81 0 
2443 77 2 2 6 26 77 0 
2444 45 3 2 6 26 45 0 
2445 81 4 2 6 26 81 0 
2446 27 5 2 6 26 27 0 
2447 15 6 2 6 25 15 0 
2448 7 7 2 6 26 7 0 
2449 4 8 2 6 24 4 0 
2450 83 9 2 6 25 83 0 
2461 30 0 3 6 25 30 0 
2462 45 1 3 6 26 45 0 
2463 79 2 3 6 26 79 0 
2464 61 3 3 6 26 61 0 
2465 16 4 3 6 26 16 0 
2466 21 5 3 6 26 21 0 
2467 46 6 3 6 26 46 0 
2468 15 7 3 6 24 15 0 
2469 9 8 3 6 26 9 0 
2470 31 9 3 6 26 31 0 
2481 24 0 4 6 25 24 0 
2482 40 1 4 6 24 40 0 
2483 4 2 4 6 26 4 0 
2484 1 3 4 6 26 1 0 
2485 2 4 4 6 26 2 0 
2486 19 5 4 6 26 19 0 
2487 53 6 4 6 25 53 0 
2488 23 7 4 6 25 23 0 
2489 54 8 4 6 26 54 0 
2490 26 9 4 6 26 26 0 
2501 46 0 5 6 26 46 0 
2502 91 1 5 6 26 91 0 
2503 60 2 5 6 26 60 0 
2504 39 3 5 6 26 39 0 
2505 4 4 5 6 26 4 0 
2506 61 5 5 6 26 61 0 
2507 18 6 5 6 25 18 0 
2508 97 7 5 6 26 97 0 
2509 7 8 5 6 26 7 0 
2510 36 9 5 6 26 36 0 
2521 44 0 6 6 26 44 0 
2522 15 1 6 6 26 15 0 
2523 71 2 6 6 26 71 0 
2524 9 3 6 6 26 9 0 
2525 25 4 6 6 26 25 0 
2526 29 5 6 6 26 29 0 
2527 48 6 6 6 25 48 0 
2528 35 7 6 6 26 35 0 
2529 42 8 6 6 26 42 0 
2530 27 9 6 6 25 27 0 
2541 79 0 7 6 26 79 0 
2542 56 1 7 6 26 56 0 
2543 99 2 7 6 26 99 0 
2544 52 3 7 6 26 52 0 
2545 27 4 7 6 26 27 0 
2546 32 5 7 6 26 32 0 
2547 21 6 7 6 25 21 0 
2548 20 7 7 6 26 20 0 
2549 13 8 7 6 26 13 0 
2550 52 9 7 6 26 52 0 
2561 24 0 8 6 26 24 0 
2562 57 1 8 6 26 57 0 
2563 73 2 8 6 26 73 0 
2564 56 3 8 6 26 56 0 
2565 44 4 8 6 26 44 0 
2566 36 5 8 6 25 36 0 
2567 16 6 8 6 26 16 0 
2568 85 7 8 6 26 85 0 
2569 25 8 8 6 25 25 0 
2570 94 9 8 6 26 94 0 
2581 50 0 9 6 26 50 0 
2582 23 1 9 6 26 23 0 
2583 8 2 9 6 26 8 0 
2584 54 3 9 6 26 54 0 
2585 36 4 9 6 24 36 0 
2586 98 5 9 6 25 98 0 
2587 33 6 9 6 26 33 0 
2588 2 7 9 6 26 2 0 
2589 75 8 9 6 26 75 0 
2590 45 9 9 6 26 45 0 
2801 32 0 0 7 26 32 0 
2802 90 1 0 7 26 90 0 
2803 58 2 0 7 26 58 0 
2804 78 3 0 7 25 78 0 
2805 22 4 0 7 25 22 0 
2806 48 5 0 7 24 48 0 
2807 100 6 0 7 26 100 0 
2808 89 7 0 7 26 89 0 
2809 42 8 0 7 26 42 0 
2810 61 9 0 7 26 61 0 
2821 57 0 1 7 26 57 0 
2822 3 1 1 7 26 3 0 
2823 48 2 1 7 26 48 0 
2824 16 3 1 7 26 16 0 
2825 70 4 1 7 26 70 0 
2826 16 5 1 7 26 16 0 
2827 74 6 1 7 25 74 0 
2828 57 7 1 7 26 57 0 
2829 40 8 1 7 26 40 0 
2830 20 9 1 7 26 20 0 
2841 62 0 2 7 25 62 0 
2842 98 1 2 7 25 98 0 
2843 42 2 2 7 26 42 0 
2844 18 3 2 7 26 18 0 
2845 29 4 2 7 26 29 0 
2846 84 5 2 7 26 84 0 
2847 10 6 2 7 26 10 0 
2848 20 7 2 7 26 20 0 
2849 10 8 2 7 26 10 0 
2850 83 9 2 7 25 83 0 
2861 20 0 3 7 26 20 0 
2862 28 1 3 7 26 28 0 
2863 10 2 3 7 26 10 0 
2864 7 3 3 7 26 7 0 
2865 6 4 3 7 26 6 0 
2866 71 5 3 7 26 71 0 
2867 11 6 3 7 26 11 0 
2868 12 7 3 7 25 12 0 
2869 97 8 3 7 26 97 0 
2870 67 9 3 7 26 67 0 
2881 40 0 4 7 24 40 0 
2882 74 1 4 7 26 74 0 
2883 69 2 4 7 26 69 0 
2884 62 3 4 7 26 62 0 
2885 54 4 4 7 26 54 0 
2886 18 5 4 7 25 18 0 
2887 59 6 4 7 26 59 0 
2888 58 7 4 7 26 58 0 
2889 14 8 4 7 25 14 0 
2890 74 9 4 7 25 74 0 
2901 40 0 5 7 24 40 0 
2902 84 1 5 7 26 84 0 
2903 21 2 5 7 26 21 0 
2904 44 3 5 7 26 44 0 
2905 56 4 5 7 24 56 0 
2906 1 5 5 7 26 1 0 
2907 7 6 5 7 26 7 0 
2908 70 7 5 7 26 70 0 
2909 5 8 5 7 26 5 0 
2910 71 9 5 7 26 71 0 
2921 13 0 6 7 26 13 0 
2922 59 1 6 7 25 59 0 
2923 59 2 6 7 25 59 0 
2924 15 3 6 7 26 15 0 
2925 98 4 6 7 26 98 0 
2926 16 5 6 7 26 16 0 
2927 23 6 6 7 26 23 0 
2928 68 7 6 7 26 68 0 
2929 1 8 6 7 26 1 0 
2930 29 9 6 7 26 29 0 
2941 88 0 7 7 26 88 0 
2942 17 1 7 7 26 17 0 
2943 40 2 7 7 26 40 0 
2944 66 3 7 7 26 66 0 
2945 72 4 7 7 26 72 0 
2946 70 5 7 7 26 70 0 
2947 83 6 7 7 26 83 0 
2948 53 7 7 7 24 53 0 
2949 37 8 7 7 26 37 0 
2950 28 9 7 7 26 28 0 
2961 83 0 8 7 26 83 0 
2962 37 1 8 7 26 37 0 
2963 4 2 8 7 26 4 0 
2964 41 3 8 7 26 41 0 
2965 21 4 8 7 26 21 0 
2966 64 5 8 7 26 64 0 
2967 12 6 8 7 26 12 0 
2968 53 7 8 7 24 53 0 
2969 38 8 8 7 26 38 0 
2970 9 9 8 7 26 9 0 
2981 96 0 9 7 26 96 0 
2982 67 1 9 7 26 67 0 
2983 3 2 9 7 26 3 0 
2984 47 3 9 7 26 47 0 
2985 96 4 9 7 26 96 0 
2986 56 5 9 7 26 56 0 
2987 10 6 9 7 25 10 0 
2988 39 7 9 7 26 39 0 
2989 25 8 9 7 25 25 0 
2990 96 9 9 7 26 96 0 
3201 72 0 0 8 26 72 0 
3202 86 1 0 8 26 86 0 
3203 68 2 0 8 26 68 0 
3204 18 3 0 8 26 18 0 
3205 22 4 0 8 24 22 0 
3206 23 5 0 8 26 23 0 
3207 5 6 0 8 26 5 0 
3208 37 7 0 8 26 37 0 
3209 92 8 0 8 26 92 0 
3210 38 9 0 8 26 38 0 
3221 50 0 1 8 26 50 0 
3222 71 1 1 8 26 71 0 
3223 83 2 1 8 26 83 0 
3224 74 3 1 8 26 74 0 
3225 77 4 1 8 26 77 0 
3226 72 5 1 8 26 72 0 
3227 75 6 1 8 26 75 0 
3228 43 7 1 8 26 43 0 
3229 100 8 1 8 26 100 0 
3230 72 9 1 8 26 72 0 
3241 98 0 2 8 24 98 0 
3242 80 1 2 8 26 80 0 
3243 59 2 2 8 26 59 0 
3244 91 3 2 8 26 91 0 
3245 41 4 2 8 25 41 0 
3246 92 5 2 8 26 92 0 
3247 13 6 2 8 26 13 0 
3248 36 7 2 8 25 36 0 
3249 93 8 2 8 26 93 0 
3250 15 9 2 8 26 15 0 
3261 77 0 3 8 26 77 0 
3262 90 1 3 8 25 90 0 
3263 90 2 3 8 25 90 0 
3264 41 3 3 8 24 41 0 
3265 39 4 3 8 26 39 0 
3266 28 5 3 8 26 28 0 
3267 36 6 3 8 25 36 0 
3268 91 7 3 8 25 91 0 
3269 12 8 3 8 25 12 0 
3270 91 9 3 8 25 91 0 
3281 65 0 4 8 26 65 0 
3282 36 1 4 8 26 36 0 
3283 61 2 4 8 26 61 0 
3284 63 3 4 8 26 63 0 
3285 14 4 4 8 26 14 0 
3286 96 5 4 8 26 96 0 
3287 30 6 4 8 26 30 0 
3288 83 7 4 8 26 83 0 
3289 54 8 4 8 26 54 0 
3290 1 9 4 8 26 1 0 
3301 58 0 5 8 26 58 0 
3302 92 1 5 8 25 92 0 
3303 100 2 5 8 26 100 0 
3304 49 3 5 8 26 49 0 
3305 56 4 5 8 24 56 0 
3306 56 5 5 8 24 56 0 
3307 2 6 5 8 26 2 0 
3308 22 7 5 8 25 22 0 
3309 14 8 5 8 25 14 0 
3310 41 9 5 8 26 41 0 
3321 10 0 6 8 26 10 0 
3322 70 1 6 8 26 70 0 
3323 92 2 6 8 25 92 0 
3324 69 3 6 8 25 69 0 
3325 52 4 6 8 26 52 0 
3326 50 5 6 8 26 50 0 
3327 13 6 6 8 25 13 0 
3328 11 7 6 8 26 11 0 
3329 66 8 6 8 25 66 0 
3330 40 9 6 8 26 40 0 
3341 45 0 7 8 26 45 0 
3342 15 1 7 8 26 15 0 
3343 90 2 7 8 26 90 0 
3344 36 3 7 8 26 36 0 
3345 7 4 7 8 26 7 0 
3346 81 5 7 8 26 81 0 
3347 53 6 7 8 24 53 0 
3348 81 7 7 8 26 81 0 
3349 18 8 7 8 25 18 0 
3350 72 9 7 8 26 72 0 
3361 25 0 8 8 26 25 0 
3362 27 1 8 8 26 27 0 
3363 25 2 8 8 26 25 0 
3364 60 3 8 8 26 60 0 
3365 31 4 8 8 26 31 0 
3366 10 5 8 8 25 10 0 
3367 86 6 8 8 26 86 0 
3368 19 7 8 8 26 19 0 
3369 68 8 8 8 26 68 0 
3370 23 9 8 8 25 23 0 
3381 100 0 9 8 26 100 0 
3382 95 1 9 8 25 95 0 
3383 11 2 9 8 26 11 0 
3384 93 3 9 8 26 93 0 
3385 77 4 9 8 26 77 0 
3386 45 5 9 8 26 45 0 
3387 6 6 9 8 26 6 0 
3388 98 7 9 8 24 98 0 
3389 70 8 9 8 26 70 0 
3390 76 9 9 8 26 76 0 
3601 81 0 0 9 26 81 0 
3602 23 1 0 9 26 23 0 
3603 65 2 0 9 25 65 0 
3604 22 3 0 9 24 22 0 
3605 37 4 0 9 26 37 0 
3606 18 5 0 9 25 18 0 
3607 18 6 0 9 24 18 0 
3608 52 7 0 9 25 52 0 
3609 36 8 0 9 26 36 0 
3610 64 9 0 9 26 64 0 
3621 98 0 1 9 25 98 0 
3622 15 1 1 9 26 15 0 
3623 14 2 1 9 26 14 0 
3624 25 3 1 9 25 25 0 
3625 67 4 1 9 26 67 0 
3626 88 5 1 9 26 88 0 
3627 55 6 1 9 26 55 0 
3628 33 7 1 9 26 33 0 
3629 11 8 1 9 26 11 0 
3630 98 9 1 9 26 98 0 
3641 70 0 2 9 23 70 0 
3642 54 1 2 9 26 54 0 
3643 37 2 2 9 26 37 0 
3644 45 3 2 9 26 45 0 
3645 73 4 2 9 26 73 0 
3646 35 5 2 9 26 35 0 
3647 90 6 2 9 26 90 0 
3648 66 7 2 9 26 66 0 
3649 89 8 2 9 26 89 0 
3650 29 9 2 9 26 29 0 
3661 37 0 3 9 25 37 0 
3662 75 1 3 9 26 75 0 
3663 18 2 3 9 26 18 0 
3664 99 3 3 9 25 99 0 
3665 19 4 3 9 26 19 0 
3666 43 5 3 9 25 43 0 
3667 41 6 3 9 26 41 0 
3668 38 7 3 9 25 38 0 
3669 38 8 3 9 25 38 0 
3670 22 9 3 9 26 22 0 
3681 69 0 4 9 26 69 0 
3682 63 1 4 9 26 63 0 
3683 41 2 4 9 25 41 0 
3684 94 3 4 9 26 94 0 
3685 43 4 4 9 25 43 0 
3686 54 5 4 9 26 54 0 
3687 15 6 4 9 26 15 0 
3688 100 7 4 9 26 100 0 
3689 91 8 4 9 24 91 0 
3690 28 9 4 9 26 28 0 
3701 38 0 5 9 26 38 0 
3702 93 1 5 9 26 93 0 
3703 89 2 5 9 26 89 0 
3704 83 3 5 9 26 83 0 
3705 10 4 5 9 26 10 0 
3706 87 5 5 9 26 87 0 
3707 9 6 5 9 26 9 0 
3708 60 7 5 9 26 60 0 
3709 22 8 5 9 25 22 0 
3710 19 9 5 9 26 19 0 
3721 87 0 6 9 24 87 0 
3722 97 1 6 9 26 97 0 
3723 47 2 6 9 26 47 0 
3724 33 3 6 9 26 33 0 
3725 80 4 6 9 26 80 0 
3726 97 5 6 9 26 97 0 
3727 23 6 6 9 26 23 0 
3728 13 7 6 9 25 13 0 
3729 66 8 6 9 25 66 0 
3730 70 9 6 9 24 70 0 
3741 78 0 7 9 26 78 0 
3742 79 1 7 9 26 79 0 
3743 78 2 7 9 25 78 0 
3744 23 3 7 9 26 23 0 
3745 69 4 7 9 25 69 0 
3746 39 5 7 9 26 39 0 
3747 5 6 7 9 26 5 0 
3748 54 7 7 9 26 54 0 
3749 88 8 7 9 26 88 0 
3750 13 9 7 9 26 13 0 
3761 14 0 8 9 26 14 0 
3762 75 1 8 9 26 75 0 
3763 66 2 8 9 25 66 0 
3764 78 3 8 9 25 78 0 
3765 92 4 8 9 26 92 0 
3766 15 5 8 9 26 15 0 
3767 32 6 8 9 26 32 0 
3768 23 7 8 9 26 23 0 
3769 18 8 8 9 25 18 0 
3770 37 9 8 9 26 37 0 
3781 86 0 9 9 26 86 0 
3782 66 1 9 9 24 66 0 
3783 62 2 9 9 26 62 0 
3784 7 3 9 9 26 7 0 
3785 71 4 9 9 26 71 0 
3786 2 5 9 9 26 2 0 
3787 58 6 9 9 26 58 0 
3788 26 7 9 9 26 26 0 
3789 6 8 9 9 26 6 0 
3790 48 9 9 9 25 48 0 
11 61 10 0 0 26 61 0 
12 17 11 0 0 25 17 0 
13 47 12 0 0 26 47 0 
14 10 13 0 0 25 10 0 
15 66 14 0 0 25 66 0 
16 59 15 0 0 26 59 0 
17 57 16 0 0 26 57 0 
18 9 17 0 0 26 9 0 
19 96 18 0 0 26 96 0 
20 71 19 0 0 26 71 0 
31 54 10 1 0 26 54 0 
32 10 11 1 0 26 10 0 
33 89 12 1 0 24 89 0 
34 20 13 1 0 26 20 0 
35 33 14 1 0 26 33 0 
36 4 15 1 0 26 4 0 
37 38 16 1 0 26 38 0 
38 48 17 1 0 26 48 0 
39 67 18 1 0 26 67 0 
40 50 19 1 0 26 50 0 
51 90 10 2 0 26 90 0 
52 70 11 2 0 26 70 0 
53 92 12 2 0 26 92 0 
54 94 13 2 0 25 94 0 
55 94 14 2 0 25 94 0 
56 9 15 2 0 26 9 0 
57 33 16 2 0 26 33 0 
58 14 17 2 0 25 14 0 
59 51 18 2 0 26 51 0 
60 16 19 2 0 25 16 0 
71 9 10 3 0 26 9 0 
72 43 11 3 0 26 43 0 
73 83 12 3 0 25 83 0 
74 17 13 3 0 26 17 0 
75 53 14 3 0 25 53 0 
76 23 15 3 0 26 23 0 
77 95 16 3 0 26 95 0 
78 90 17 3 0 26 90 0 
79 6 18 3 0 26 6 0 
80 91 19 3 0 26 91 0 
91 13 10 4 0 25 13 0 
92 54 11 4 0 26 54 0 
93 33 12 4 0 25 33 0 
94 40 13 4 0 26 40 0 
95 81 14 4 0 26 81 0 
96 38 15 4 0 26 38 0 
97 65 16 4 0 26 65 0 
98 41 17 4 0 26 41 0 
99 77 18 4 0 26 77 0 
100 33 19 4 0 26 33 0 
111 41 10 5 0 26 41 0 
112 96 11 5 0 26 96 0 
113 33 12 5 0 25 33 0 
114 55 13 5 0 26 55 0 
115 17 14 5 0 26 17 0 
116 5 15 5 0 26 5 0 
117 13 16 5 0 26 13 0 
118 97 17 5 0 26 97 0 
119 36 18 5 0 25 36 0 
120 86 19 5 0 25 86 0 
131 55 10 6 0 26 55 0 
132 65 11 6 0 26 65 0 
133 13 12 6 0 26 13 0 
134 59 13 6 0 26 59 0 
135 83 14 6 0 26 83 0 
136 40 15 6 0 26 40 0 
137 99 16 6 0 26 99 0 
138 12 17 6 0 26 12 0 
139 89 18 6 0 26 89 0 
140 41 19 6 0 26 41 0 
151 78 10 7 0 25 78 0 
152 58 11 7 0 25 58 0 
153 58 12 7 0 25 58 0 
154 49 13 7 0 26 49 0 
155 21 14 7 0 25 21 0 
156 54 15 7 0 26 54 0 
157 73 16 7 0 26 73 0 
158 43 17 7 0 26 43 0 
159 50 18 7 0 26 50 0 
160 85 19 7 0 26 85 0 
171 14 10 8 0 26 14 0 
172 59 11 8 0 26 59 0 
173 30 12 8 0 26 30 0 
174 89 13 8 0 26 89 0 
175 41 14 8 0 25 41 0 
176 100 15 8 0 26 100 0 
177 87 16 8 0 26 87 0 
178 97 17 8 0 26 97 0 
179 19 18 8 0 25 19 0 
180 69 19 8 0 26 69 0 
191 78 10 9 0 25 78 0 
192 62 11 9 0 26 62 0 
193 81 12 9 0 26 81 0 
194 26 13 9 0 26 26 0 
195 73 14 9 0 26 73 0 
196 81 15 9 0 25 81 0 
197 54 16 9 0 26 54 0 
198 48 17 9 0 26 48 0 
199 29 18 9 0 26 29 0 
200 50 19 9 0 26 50 0 
411 58 10 0 1 26 58 0 
412 42 11 0 1 26 42 0 
413 24 12 0 1 26 24 0 
414 27 13 0 1 26 27 0 
415 67 14 0 1 26 67 0 
416 60 15 0 1 26 60 0 
417 56 16 0 1 26 56 0 
418 90 17 0 1 26 90 0 
419 14 18 0 1 26 14 0 
420 80 19 0 1 25 80 0 
431 59 10 1 1 26 59 0 
432 46 11 1 1 26 46 0 
433 5 12 1 1 26 5 0 
434 53 13 1 1 26 53 0 
435 30 14 1 1 26 30 0 
436 74 15 1 1 26 74 0 
437 34 16 1 1 26 34 0 
438 77 17 1 1 26 77 0 
439 62 18 1 1 26 62 0 
440 74 19 1 1 26 74 0 
451 99 10 2 1 26 99 0 
452 38 11 2 1 26 38 0 
453 82 12 2 1 26 82 0 
454 42 13 2 1 26 42 0 
455 98 14 2 1 26 98 0 
456 37 15 2 1 26 37 0 
457 61 16 2 1 26 61 0 
458 56 17 2 1 26 56 0 
459 24 18 2 1 26 24 0 
460 100 19 2 1 26 100 0 
471 82 10 3 1 25 82 0 
472 67 11 3 1 26 67 0 
473 11 12 3 1 26 11 0 
474 59 13 3 1 26 59 0 
475 72 14 3 1 25 72 0 
476 54 15 3 1 26 54 0 
477 81 16 3 1 25 81 0 
478 87 17 3 1 26 87 0 
479 72 18 3 1 26 72 0 
480 95 19 3 1 24 95 0 
491 73 10 4 1 26 73 0 
492 61 11 4 1 26 61 0 
493 12 12 4 1 26 12 0 
494 28 13 4 1 24 28 0 
495 73 14 4 1 26 73 0 
496 63 15 4 1 26 63 0 
497 66 16 4 1 26 66 0 
498 92 17 4 1 26 92 0 
499 54 18 4 1 26 54 0 
500 14 19 4 1 26 14 0 
511 4 10 5 1 26 4 0 
512 44 11 5 1 25 44 0 
513 82 12 5 1 26 82 0 
514 24 13 5 1 26 24 0 
515 21 14 5 1 24 21 0 
516 74 15 5 1 26 74 0 
517 23 16 5 1 26 23 0 
518 36 17 5 1 24 36 0 
519 80 18 5 1 26 80 0 
520 70 19 5 1 25 70 0 
531 45 10 6 1 26 45 0 
532 60 11 6 1 25 60 0 
533 18 12 6 1 25 18 0 
534 21 13 6 1 24 21 0 
535 16 14 6 1 26 16 0 
536 24 15 6 1 26 24 0 
537 36 16 6 1 25 36 0 
538 18 17 6 1 25 18 0 
539 61 18 6 1 26 61 0 
540 75 19 6 1 26 75 0 
551 100 10 7 1 26 100 0 
552 60 11 7 1 25 60 0 
553 86 12 7 1 26 86 0 
554 2 13 7 1 26 2 0 
555 25 14 7 1 26 25 0 
556 79 15 7 1 26 79 0 
557 18 16 7 1 25 18 0 
558 63 17 7 1 26 63 0 
559 5 18 7 1 26 5 0 
560 94 19 7 1 25 94 0 
571 37 10 8 1 26 37 0 
572 78 11 8 1 24 78 0 
573 70 12 8 1 26 70 0 
574 77 13 8 1 26 77 0 
575 60 14 8 1 26 60 0 
576 81 15 8 1 25 81 0 
577 37 16 8 1 26 37 0 
578 24 17 8 1 26 24 0 
579 68 18 8 1 25 68 0 
580 84 19 8 1 26 84 0 
591 22 10 9 1 26 22 0 
592 69 11 9 1 26 69 0 
593 76 12 9 1 26 76 0 
594 82 13 9 1 26 82 0 
595 2 14 9 1 26 2 0 
596 18 15 9 1 26 18 0 
597 45 16 9 1 26 45 0 
598 56 17 9 1 26 56 0 
599 66 18 9 1 26 66 0 
600 61 19 9 1 26 61 0 
811 23 10 0 2 26 23 0 
812 92 11 0 2 26 92 0 
813 95 12 0 2 26 95 0 
814 13 13 0 2 26 13 0 
815 34 14 0 2 25 34 0 
816 69 15 0 2 26 69 0 
817 72 16 0 2 26 72 0 
818 52 17 0 2 26 52 0 
819 97 18 0 2 26 97 0 
820 46 19 0 2 24 46 0 
831 2 10 1 2 26 2 0 
832 65 11 1 2 26 65 0 
833 97 12 1 2 26 97 0 
834 9 13 1 2 26 9 0 
835 1 14 1 2 26 1 0 
836 68 15 1 2 26 68 0 
837 2 16 1 2 26 2 0 
838 81 17 1 2 25 81 0 
839 57 18 1 2 26 57 0 
840 56 19 1 2 25 56 0 
851 21 10 2 2 26 21 0 
852 86 11 2 2 26 86 0 
853 92 12 2 2 26 92 0 
854 55 13 2 2 26 55 0 
855 72 14 2 2 25 72 0 
856 58 15 2 2 26 58 0 
857 95 16 2 2 26 95 0 
858 81 17 2 2 24 81 0 
859 86 18 2 2 25 86 0 
860 95 19 2 2 24 95 0 
871 91 10 3 2 26 91 0 
872 93 11 3 2 26 93 0 
873 36 12 3 2 26 36 0 
874 28 13 3 2 25 28 0 
875 26 14 3 2 24 26 0 
876 26 15 3 2 24 26 0 
877 74 16 3 2 26 74 0 
878 35 17 3 2 26 35 0 
879 19 18 3 2 25 19 0 
880 36 19 3 2 26 36 0 
891 82 10 4 2 25 82 0 
892 3 11 4 2 26 3 0 
893 44 12 4 2 25 44 0 
894 21 13 4 2 25 21 0 
895 85 14 4 2 26 85 0 
896 5 15 4 2 26 5 0 
897 31 16 4 2 26 31 0 
898 32 17 4 2 26 32 0 
899 90 18 4 2 26 90 0 
900 70 19 4 2 25 70 0 
911 38 10 5 2 26 38 0 
912 34 11 5 2 25 34 0 
913 51 12 5 2 26 51 0 
914 28 13 5 2 25 28 0 
915 42 14 5 2 26 42 0 
916 65 15 5 2 26 65 0 
917 62 16 5 2 26 62 0 
918 88 17 5 2 26 88 0 
919 44 18 5 2 26 44 0 
920 87 19 5 2 26 87 0 
931 37 10 6 2 26 37 0 
932 19 11 6 2 26 19 0 
933 79 12 6 2 26 79 0 
934 11 13 6 2 25 11 0 
935 39 14 6 2 26 39 0 
936 64 15 6 2 26 64 0 
937 67 16 6 2 26 67 0 
938 66 17 6 2 26 66 0 
939 60 18 6 2 26 60 0 
940 63 19 6 2 26 63 0 
951 95 10 7 2 25 95 0 
952 18 11 7 2 25 18 0 
953 99 12 7 2 26 99 0 
954 5 13 7 2 26 5 0 
955 74 14 7 2 26 74 0 
956 40 15 7 2 26 40 0 
957 30 16 7 2 26 30 0 
958 35 17 7 2 26 35 0 
959 89 18 7 2 25 89 0 
960 29 19 7 2 26 29 0 
971 51 10 8 2 26 51 0 
972 88 11 8 2 26 88 0 
973 4 12 8 2 26 4 0 
974 38 13 8 2 26 38 0 
975 27 14 8 2 26 27 0 
976 61 15 8 2 26 61 0 
977 64 16 8 2 26 64 0 
978 68 17 8 2 25 68 0 
979 31 18 8 2 26 31 0 
980 49 19 8 2 26 49 0 
991 90 10 9 2 26 90 0 
992 42 11 9 2 26 42 0 
993 6 12 9 2 26 6 0 
994 96 13 9 2 24 96 0 
995 90 14 9 2 26 90 0 
996 41 15 9 2 26 41 0 
997 96 16 9 2 26 96 0 
998 6 17 9 2 26 6 0 
999 21 18 9 2 26 21 0 
1000 83 19 9 2 26 83 0 
1211 90 10 0 3 26 90 0 
1212 100 11 0 3 26 100 0 
1213 27 12 0 3 26 27 0 
1214 92 13 0 3 26 92 0 
1215 76 14 0 3 26 76 0 
1216 60 15 0 3 26 60 0 
1217 5 16 0 3 26 5 0 
1218 42 17 0 3 25 42 0 
1219 80 18 0 3 26 80 0 
1220 92 19 0 3 26 92 0 
1231 49 10 1 3 26 49 0 
1232 63 11 1 3 26 63 0 
1233 46 12 1 3 26 46 0 
1234 93 13 1 3 26 93 0 
1235 45 14 1 3 26 45 0 
1236 34 15 1 3 25 34 0 
1237 55 16 1 3 26 55 0 
1238 9 17 1 3 26 9 0 
1239 96 18 1 3 26 96 0 
1240 51 19 1 3 26 51 0 
1251 53 10 2 3 26 53 0 
1252 52 11 2 3 26 52 0 
1253 83 12 2 3 26 83 0 