ITEM: TIMESTEP
1.29243
ITEM: NUMBER OF ATOMS
8000
ITEM: BOX BOUNDS
0 20
0 20
0 20
ITEM: ATOMS
1 1 0 0 0 35 62
2 1 1 0 0 35 62
3 1 2 0 0 35 62
4 1 3 0 0 35 62
5 2 4 0 0 28 50
6 3 5 0 0 61 103
7 2 6 0 0 28 50
8 4 7 0 0 64 85
9 4 8 0 0 64 85
10 5 9 0 0 39 19
21 6 0 1 0 10 26
22 6 1 1 0 10 26
23 6 2 1 0 10 26
24 2 3 1 0 28 50
25 4 4 1 0 64 85
26 2 5 1 0 28 50
27 4 6 1 0 64 85
28 4 7 1 0 64 85
29 4 8 1 0 64 85
30 7 9 1 0 42 38
41 8 0 2 0 16 47
42 6 1 2 0 10 26
43 6 2 2 0 10 26
44 4 3 2 0 64 85
45 2 4 2 0 28 50
46 4 5 2 0 64 85
47 4 6 2 0 64 85
48 4 7 2 0 64 85
49 4 8 2 0 64 85
50 7 9 2 0 42 38
61 9 0 3 0 95 19
62 6 1 3 0 10 26
63 6 2 3 0 10 26
64 10 3 3 0 8 30
65 11 4 3 0 55 15
66 4 5 3 0 64 85
67 12 6 3 0 6 14
68 12 7 3 0 6 14
69 12 8 3 0 6 14
70 13 9 3 0 83 125
81 9 0 4 0 95 19
82 6 1 4 0 10 26
83 14 2 4 0 33 94
84 10 3 4 0 8 30
85 15 4 4 0 78 26
86 11 5 4 0 55 15
87 11 6 4 0 55 15
88 15 7 4 0 78 26
89 16 8 4 0 72 26
90 17 9 4 0 47 137
101 18 0 5 0 80 28
102 14 1 5 0 33 94
103 14 2 5 0 33 94
104 10 3 5 0 8 30
105 15 4 5 0 78 26
106 15 5 5 0 78 26
107 15 6 5 0 78 26
108 19 7 5 0 12 1
109 17 8 5 0 47 137
110 17 9 5 0 47 137
121 20 0 6 0 69 1
122 14 1 6 0 33 94
123 14 2 6 0 33 94
124 14 3 6 0 33 94
125 15 4 6 0 78 26
126 15 5 6 0 78 26
127 15 6 6 0 78 26
128 21 7 6 0 27 27
129 16 8 6 0 72 26
130 17 9 6 0 47 137
141 22 0 7 0 86 122
142 14 1 7 0 33 94
143 14 2 7 0 33 94
144 15 3 7 0 78 26
145 23 4 7 0 77 1
146 15 5 7 0 78 26
147 21 6 7 0 27 27
148 21 7 7 0 27 27
149 21 8 7 0 27 27
150 17 9 7 0 47 137
161 22 0 8 0 86 122
162 24 1 8 0 58 26
163 24 2 8 0 58 26
164 14 3 8 0 33 94
165 25 4 8 0 83 53
166 21 5 8 0 27 27
167 21 6 8 0 27 27
168 21 7 8 0 27 27
169 26 8 8 0 48 15
170 26 9 8 0 48 15
181 22 0 9 0 86 122
182 24 1 9 0 58 26
183 24 2 9 0 58 26
184 25 3 9 0 83 53
185 25 4 9 0 83 53
186 25 5 9 0 83 53
187 21 6 9 0 27 27
188 26 7 9 0 48 15
189 26 8 9 0 48 15
190 27 9 9 0 45 40
401 1 0 0 1 35 62
402 1 1 0 1 35 62
403 1 2 0 1 35 62
404 2 3 0 1 28 50
405 2 4 0 1 28 50
406 22 5 0 1 86 122
407 2 6 0 1 28 50
408 22 7 0 1 86 122
409 22 8 0 1 86 122
410 7 9 0 1 42 38
421 1 0 1 1 35 62
422 6 1 1 1 10 26
423 6 2 1 1 10 26
424 22 3 1 1 86 122
425 22 4 1 1 86 122
426 2 5 1 1 28 50
427 22 6 1 1 86 122
428 4 7 1 1 64 85
429 22 8 1 1 86 122
430 7 9 1 1 42 38
441 6 0 2 1 10 26
442 6 1 2 1 10 26
443 22 2 2 1 86 122
444 2 3 2 1 28 50
445 2 4 2 1 28 50
446 2 5 2 1 28 50
447 12 6 2 1 6 14
448 12 7 2 1 6 14
449 12 8 2 1 6 14
450 7 9 2 1 42 38
461 9 0 3 1 95 19
462 6 1 3 1 10 26
463 6 2 3 1 10 26
464 2 3 3 1 28 50
465 11 4 3 1 55 15
466 2 5 3 1 28 50
467 4 6 3 1 64 85
468 12 7 3 1 6 14
469 12 8 3 1 6 14
470 16 9 3 1 72 26
481 9 0 4 1 95 19
482 9 1 4 1 95 19
483 14 2 4 1 33 94
484 14 3 4 1 33 94
485 11 4 4 1 55 15
486 11 5 4 1 55 15
487 11 6 4 1 55 15
488 12 7 4 1 6 14
489 16 8 4 1 72 26
490 16 9 4 1 72 26
501 28 0 5 1 36 60
502 14 1 5 1 33 94
503 14 2 5 1 33 94
504 14 3 5 1 33 94
505 15 4 5 1 78 26
506 11 5 5 1 55 15
507 15 6 5 1 78 26
508 16 7 5 1 72 26
509 16 8 5 1 72 26
510 16 9 5 1 72 26
521 22 0 6 1 86 122
522 28 1 6 1 36 60
523 14 2 6 1 33 94
524 14 3 6 1 33 94
525 15 4 6 1 78 26
526 15 5 6 1 78 26
527 21 6 6 1 27 27
528 21 7 6 1 27 27
529 16 8 6 1 72 26
530 17 9 6 1 47 137
541 24 0 7 1 58 26
542 14 1 7 1 33 94
543 14 2 7 1 33 94
544 14 3 7 1 33 94
545 15 4 7 1 78 26
546 15 5 7 1 78 26
547 21 6 7 1 27 27
548 21 7 7 1 27 27
549 21 8 7 1 27 27
550 26 9 7 1 48 15
561 24 0 8 1 58 26
562 24 1 8 1 58 26
563 14 2 8 1 33 94
564 25 3 8 1 83 53
565 25 4 8 1 83 53
566 21 5 8 1 27 27
567 21 6 8 1 27 27
568 26 7 8 1 48 15
569 26 8 8 1 48 15
570 27 9 8 1 45 40
581 24 0 9 1 58 26
582 24 1 9 1 58 26
583 25 2 9 1 83 53
584 24 3 9 1 58 26
585 25 4 9 1 83 53
586 25 5 9 1 83 53
587 21 6 9 1 27 27
588 26 7 9 1 48 15
589 26 8 9 1 48 15
590 27 9 9 1 45 40
801 1 0 0 2 35 62
802 1 1 0 2 35 62
803 1 2 0 2 35 62
804 2 3 0 2 28 50
805 2 4 0 2 28 50
806 2 5 0 2 28 50
807 29 6 0 2 18 10
808 22 7 0 2 86 122
809 22 8 0 2 86 122
810 7 9 0 2 42 38
821 22 0 1 2 86 122
822 22 1 1 2 86 122
823 22 2 1 2 86 122
824 2 3 1 2 28 50
825 2 4 1 2 28 50
826 2 5 1 2 28 50
827 22 6 1 2 86 122
828 22 7 1 2 86 122
829 30 8 1 2 90 36
830 30 9 1 2 90 36
841 9 0 2 2 95 19
842 22 1 2 2 86 122
843 6 2 2 2 10 26
844 22 3 2 2 86 122
845 2 4 2 2 28 50
846 2 5 2 2 28 50
847 12 6 2 2 6 14
848 12 7 2 2 6 14
849 30 8 2 2 90 36
850 30 9 2 2 90 36
861 9 0 3 2 95 19
862 9 1 3 2 95 19
863 22 2 3 2 86 122
864 22 3 3 2 86 122
865 11 4 3 2 55 15
866 2 5 3 2 28 50
867 12 6 3 2 6 14
868 12 7 3 2 6 14
869 12 8 3 2 6 14
870 30 9 3 2 90 36
881 9 0 4 2 95 19
882 22 1 4 2 86 122
883 14 2 4 2 33 94
884 14 3 4 2 33 94
885 11 4 4 2 55 15
886 11 5 4 2 55 15
887 11 6 4 2 55 15
888 14 7 4 2 33 94
889 16 8 4 2 72 26
890 16 9 4 2 72 26
901 28 0 5 2 36 60
902 14 1 5 2 33 94
903 14 2 5 2 33 94
904 14 3 5 2 33 94
905 14 4 5 2 33 94
906 11 5 5 2 55 15
907 14 6 5 2 33 94
908 21 7 5 2 27 27
909 16 8 5 2 72 26
910 16 9 5 2 72 26
921 28 0 6 2 36 60
922 28 1 6 2 36 60
923 14 2 6 2 33 94
924 15 3 6 2 78 26
925 15 4 6 2 78 26
926 21 5 6 2 27 27
927 15 6 6 2 78 26
928 21 7 6 2 27 27
929 16 8 6 2 72 26
930 17 9 6 2 47 137
941 22 0 7 2 86 122
942 14 1 7 2 33 94
943 14 2 7 2 33 94
944 14 3 7 2 33 94
945 14 4 7 2 33 94
946 14 5 7 2 33 94
947 21 6 7 2 27 27
948 21 7 7 2 27 27
949 17 8 7 2 47 137
950 17 9 7 2 47 137
961 24 0 8 2 58 26
962 24 1 8 2 58 26
963 14 2 8 2 33 94
964 25 3 8 2 83 53
965 14 4 8 2 33 94
966 14 5 8 2 33 94
967 26 6 8 2 48 15
968 26 7 8 2 48 15
969 26 8 8 2 48 15
970 31 9 8 2 9 1
981 32 0 9 2 27 29
982 32 1 9 2 27 29
983 32 2 9 2 27 29
984 25 3 9 2 83 53
985 25 4 9 2 83 53
986 14 5 9 2 33 94
987 14 6 9 2 33 94
988 26 7 9 2 48 15
989 26 8 9 2 48 15
990 17 9 9 2 47 137
1201 1 0 0 3 35 62
1202 22 1 0 3 86 122
1203 2 2 0 3 28 50
1204 2 3 0 3 28 50
1205 2 4 0 3 28 50
1206 2 5 0 3 28 50
1207 29 6 0 3 18 10
1208 30 7 0 3 90 36
1209 30 8 0 3 90 36
1210 30 9 0 3 90 36
1221 22 0 1 3 86 122
1222 22 1 1 3 86 122
1223 6 2 1 3 10 26
1224 33 3 1 3 99 32
1225 2 4 1 3 28 50
1226 29 5 1 3 18 10
1227 29 6 1 3 18 10
1228 30 7 1 3 90 36
1229 30 8 1 3 90 36
1230 30 9 1 3 90 36
1241 22 0 2 3 86 122
1242 22 1 2 3 86 122
1243 22 2 2 3 86 122
1244 22 3 2 3 86 122
1245 34 4 2 3 21 7
1246 34 5 2 3 21 7
1247 14 6 2 3 33 94
1248 14 7 2 3 33 94
1249 16 8 2 3 72 26
1250 30 9 2 3 90 36
1261 22 0 3 3 86 122
1262 22 1 3 3 86 122
1263 22 2 3 3 86 122
1264 11 3 3 3 55 15
1265 35 4 3 3 89 11
1266 11 5 3 3 55 15
1267 14 6 3 3 33 94
1268 14 7 3 3 33 94
1269 16 8 3 3 72 26
1270 16 9 3 3 72 26
1281 22 0 4 3 86 122
1282 22 1 4 3 86 122
1283 22 2 4 3 86 122
1284 35 3 4 3 89 11
1285 35 4 4 3 89 11
1286 14 5 4 3 33 94
1287 14 6 4 3 33 94
1288 14 7 4 3 33 94
1289 16 8 4 3 72 26
1290 16 9 4 3 72 26
1301 28 0 5 3 36 60
1302 22 1 5 3 86 122
1303 22 2 5 3 86 122
1304 35 3 5 3 89 11
1305 14 4 5 3 33 94
1306 14 5 5 3 33 94
1307 14 6 5 3 33 94
1308 14 7 5 3 33 94
1309 14 8 5 3 33 94
1310 16 9 5 3 72 26
1321 28 0 6 3 36 60
1322 22 1 6 3 86 122
1323 28 2 6 3 36 60
1324 14 3 6 3 33 94
1325 14 4 6 3 33 94
1326 14 5 6 3 33 94
1327 21 6 6 3 27 27
1328 21 7 6 3 27 27
1329 17 8 6 3 47 137
1330 36 9 6 3 86 13
1341 28 0 7 3 36 60
1342 28 1 7 3 36 60
1343 14 2 7 3 33 94
1344 14 3 7 3 33 94
1345 14 4 7 3 33 94
1346 14 5 7 3 33 94
1347 21 6 7 3 27 27
1348 21 7 7 3 27 27
1349 17 8 7 3 47 137
1350 17 9 7 3 47 137
1361 28 0 8 3 36 60
1362 24 1 8 3 58 26
1363 37 2 8 3 76 12
1364 14 3 8 3 33 94
1365 14 4 8 3 33 94
1366 14 5 8 3 33 94
1367 14 6 8 3 33 94
1368 17 7 8 3 47 137
1369 17 8 8 3 47 137
1370 17 9 8 3 47 137
1381 32 0 9 3 27 29
1382 32 1 9 3 27 29
1383 37 2 9 3 76 12
1384 14 3 9 3 33 94
1385 14 4 9 3 33 94
1386 14 5 9 3 33 94
1387 38 6 9 3 87 13
1388 26 7 9 3 48 15
1389 17 8 9 3 47 137
1390 17 9 9 3 47 137
1601 39 0 0 4 36 43
1602 39 1 0 4 36 43
1603 39 2 0 4 36 43
1604 33 3 0 4 99 32
1605 2 4 0 4 28 50
1606 2 5 0 4 28 50
1607 29 6 0 4 18 10
1608 30 7 0 4 90 36
1609 30 8 0 4 90 36
1610 30 9 0 4 90 36
1621 22 0 1 4 86 122
1622 33 1 1 4 99 32
1623 33 2 1 4 99 32
1624 33 3 1 4 99 32
1625 33 4 1 4 99 32
1626 29 5 1 4 18 10
1627 34 6 1 4 21 7
1628 30 7 1 4 90 36
1629 30 8 1 4 90 36
1630 30 9 1 4 90 36
1641 22 0 2 4 86 122
1642 33 1 2 4 99 32
1643 33 2 2 4 99 32
1644 22 3 2 4 86 122
1645 33 4 2 4 99 32
1646 34 5 2 4 21 7
1647 17 6 2 4 47 137
1648 17 7 2 4 47 137
1649 17 8 2 4 47 137
1650 17 9 2 4 47 137
1661 22 0 3 4 86 122
1662 22 1 3 4 86 122
1663 22 2 3 4 86 122
1664 35 3 3 4 89 11
1665 34 4 3 4 21 7
1666 34 5 3 4 21 7
1667 14 6 3 4 33 94
1668 14 7 3 4 33 94
1669 17 8 3 4 47 137
1670 16 9 3 4 72 26
1681 22 0 4 4 86 122
1682 22 1 4 4 86 122
1683 40 2 4 4 79 43
1684 35 3 4 4 89 11
1685 35 4 4 4 89 11
1686 14 5 4 4 33 94
1687 14 6 4 4 33 94
1688 14 7 4 4 33 94
1689 16 8 4 4 72 26
1690 16 9 4 4 72 26
1701 22 0 5 4 86 122
1702 22 1 5 4 86 122
1703 40 2 5 4 79 43
1704 40 3 5 4 79 43
1705 35 4 5 4 89 11
1706 40 5 5 4 79 43
1707 14 6 5 4 33 94
1708 14 7 5 4 33 94
1709 41 8 5 4 83 125
1710 41 9 5 4 83 125
1721 28 0 6 4 36 60
1722 28 1 6 4 36 60
1723 28 2 6 4 36 60
1724 35 3 6 4 89 11
1725 14 4 6 4 33 94
1726 14 5 6 4 33 94
1727 17 6 6 4 47 137
1728 40 7 6 4 79 43
1729 17 8 6 4 47 137
1730 17 9 6 4 47 137
1741 28 0 7 4 36 60
1742 37 1 7 4 76 12
1743 37 2 7 4 76 12
1744 35 3 7 4 89 11
1745 14 4 7 4 33 94
1746 17 5 7 4 47 137
1747 17 6 7 4 47 137
1748 21 7 7 4 27 27
1749 17 8 7 4 47 137
1750 17 9 7 4 47 137
1761 28 0 8 4 36 60
1762 37 1 8 4 76 12
1763 37 2 8 4 76 12
1764 37 3 8 4 76 12
1765 14 4 8 4 33 94
1766 17 5 8 4 47 137
1767 17 6 8 4 47 137
1768 17 7 8 4 47 137
1769 17 8 8 4 47 137
1770 17 9 8 4 47 137
1781 32 0 9 4 27 29
1782 37 1 9 4 76 12
1783 37 2 9 4 76 12
1784 14 3 9 4 33 94
1785 14 4 9 4 33 94
1786 14 5 9 4 33 94
1787 38 6 9 4 87 13
1788 17 7 9 4 47 137
1789 17 8 9 4 47 137
1790 17 9 9 4 47 137
2001 39 0 0 5 36 43
2002 39 1 0 5 36 43
2003 39 2 0 5 36 43
2004 33 3 0 5 99 32
2005 33 4 0 5 99 32
2006 42 5 0 5 39 26
2007 42 6 0 5 39 26
2008 42 7 0 5 39 26
2009 30 8 0 5 90 36
2010 30 9 0 5 90 36
2021 22 0 1 5 86 122
2022 33 1 1 5 99 32
2023 33 2 1 5 99 32
2024 33 3 1 5 99 32
2025 33 4 1 5 99 32
2026 43 5 1 5 74 26
2027 43 6 1 5 74 26
2028 17 7 1 5 47 137
2029 17 8 1 5 47 137
2030 30 9 1 5 90 36
2041 33 0 2 5 99 32
2042 33 1 2 5 99 32
2043 33 2 2 5 99 32
2044 33 3 2 5 99 32
2045 33 4 2 5 99 32
2046 43 5 2 5 74 26
2047 43 6 2 5 74 26
2048 17 7 2 5 47 137
2049 17 8 2 5 47 137
2050 17 9 2 5 47 137
2061 22 0 3 5 86 122
2062 40 1 3 5 79 43
2063 40 2 3 5 79 43
2064 40 3 3 5 79 43
2065 34 4 3 5 21 7
2066 14 5 3 5 33 94
2067 17 6 3 5 47 137
2068 17 7 3 5 47 137
2069 17 8 3 5 47 137
2070 41 9 3 5 83 125
2081 22 0 4 5 86 122
2082 40 1 4 5 79 43
2083 40 2 4 5 79 43
2084 40 3 4 5 79 43
2085 40 4 4 5 79 43
2086 40 5 4 5 79 43
2087 14 6 4 5 33 94
2088 14 7 4 5 33 94
2089 41 8 4 5 83 125
2090 41 9 4 5 83 125
2101 22 0 5 5 86 122
2102 40 1 5 5 79 43
2103 40 2 5 5 79 43
2104 40 3 5 5 79 43
2105 40 4 5 5 79 43
2106 40 5 5 5 79 43
2107 40 6 5 5 79 43
2108 14 7 5 5 33 94
2109 41 8 5 5 83 125
2110 41 9 5 5 83 125
2121 28 0 6 5 36 60
2122 37 1 6 5 76 12
2123 44 2 6 5 40 24
2124 40 3 6 5 79 43
2125 35 4 6 5 89 11
2126 17 5 6 5 47 137
2127 17 6 6 5 47 137
2128 17 7 6 5 47 137
2129 41 8 6 5 83 125
2130 41 9 6 5 83 125
2141 28 0 7 5 36 60
2142 28 1 7 5 36 60
2143 44 2 7 5 40 24
2144 40 3 7 5 79 43
2145 28 4 7 5 36 60
2146 17 5 7 5 47 137
2147 17 6 7 5 47 137
2148 17 7 7 5 47 137
2149 17 8 7 5 47 137
2150 45 9 7 5 8 42
2161 37 0 8 5 76 12
2162 46 1 8 5 3 32
2163 28 2 8 5 36 60
2164 46 3 8 5 3 32
2165 28 4 8 5 36 60
2166 14 5 8 5 33 94
2167 17 6 8 5 47 137
2168 17 7 8 5 47 137
2169 17 8 8 5 47 137
2170 17 9 8 5 47 137
2181 37 0 9 5 76 12
2182 46 1 9 5 3 32
2183 46 2 9 5 3 32
2184 46 3 9 5 3 32
2185 14 4 9 5 33 94
2186 38 5 9 5 87 13
2187 38 6 9 5 87 13
2188 17 7 9 5 47 137
2189 17 8 9 5 47 137
2190 17 9 9 5 47 137
2401 47 0 0 6 94 70
2402 47 1 0 6 94 70
2403 33 2 0 6 99 32
2404 33 3 0 6 99 32
2405 33 4 0 6 99 32
2406 43 5 0 6 74 26
2407 42 6 0 6 39 26
2408 42 7 0 6 39 26
2409 30 8 0 6 90 36
2410 30 9 0 6 90 36
2421 47 0 1 6 94 70
2422 47 1 1 6 94 70
2423 33 2 1 6 99 32
2424 48 3 1 6 90 15
2425 33 4 1 6 99 32
2426 43 5 1 6 74 26
2427 43 6 1 6 74 26
2428 43 7 1 6 74 26
2429 17 8 1 6 47 137
2430 30 9 1 6 90 36
2441 49 0 2 6 44 55
2442 47 1 2 6 94 70
2443 33 2 2 6 99 32
2444 33 3 2 6 99 32
2445 43 4 2 6 74 26
2446 43 5 2 6 74 26
2447 43 6 2 6 74 26
2448 17 7 2 6 47 137
2449 41 8 2 6 83 125
2450 41 9 2 6 83 125
2461 50 0 3 6 15 13
2462 40 1 3 6 79 43
2463 40 2 3 6 79 43
2464 40 3 3 6 79 43
2465 40 4 3 6 79 43
2466 43 5 3 6 74 26
2467 17 6 3 6 47 137
2468 51 7 3 6 50 59
2469 17 8 3 6 47 137
2470 41 9 3 6 83 125
2481 52 0 4 6 43 15
2482 40 1 4 6 79 43
2483 40 2 4 6 79 43
2484 40 3 4 6 79 43
2485 40 4 4 6 79 43
2486 40 5 4 6 79 43
2487 17 6 4 6 47 137
2488 14 7 4 6 33 94
2489 51 8 4 6 50 59
2490 41 9 4 6 83 125
2501 44 0 5 6 40 24
2502 40 1 5 6 79 43
2503 40 2 5 6 79 43
2504 44 3 5 6 40 24
2505 40 4 5 6 79 43
2506 40 5 5 6 79 43
2507 17 6 5 6 47 137
2508 51 7 5 6 50 59
2509 41 8 5 6 83 125
2510 41 9 5 6 83 125
2521 44 0 6 6 40 24
2522 44 1 6 6 40 24
2523 44 2 6 6 40 24
2524 40 3 6 6 79 43
2525 40 4 6 6 79 43
2526 40 5 6 6 79 43
2527 51 6 6 6 50 59
2528 41 7 6 6 83 125
2529 41 8 6 6 83 125
2530 45 9 6 6 8 42
2541 44 0 7 6 40 24
2542 44 1 7 6 40 24
2543 44 2 7 6 40 24
2544 28 3 7 6 36 60
2545 28 4 7 6 36 60
2546 17 5 7 6 47 137
2547 17 6 7 6 47 137
2548 41 7 7 6 83 125
2549 17 8 7 6 47 137
2550 41 9 7 6 83 125
2561 46 0 8 6 3 32
2562 46 1 8 6 3 32
2563 46 2 8 6 3 32
2564 28 3 8 6 36 60
2565 28 4 8 6 36 60
2566 38 5 8 6 87 13
2567 17 6 8 6 47 137
2568 17 7 8 6 47 137
2569 17 8 8 6 47 137
2570 45 9 8 6 8 42
2581 46 0 9 6 3 32
2582 46 1 9 6 3 32
2583 46 2 9 6 3 32
2584 46 3 9 6 3 32
2585 28 4 9 6 36 60
2586 28 5 9 6 36 60
2587 53 6 9 6 19 1
2588 54 7 9 6 94 39
2589 17 8 9 6 47 137
2590 45 9 9 6 8 42
2801 47 0 0 7 94 70
2802 48 1 0 7 90 15
2803 48 2 0 7 90 15
2804 48 3 0 7 90 15
2805 33 4 0 7 99 32
2806 42 5 0 7 39 26
2807 42 6 0 7 39 26
2808 55 7 0 7 89 2
2809 56 8 0 7 48 49
2810 57 9 0 7 77 25
2821 47 0 1 7 94 70
2822 47 1 1 7 94 70
2823 47 2 1 7 94 70
2824 33 3 1 7 99 32
2825 33 4 1 7 99 32
2826 43 5 1 7 74 26
2827 43 6 1 7 74 26
2828 43 7 1 7 74 26
2829 43 8 1 7 74 26
2830 41 9 1 7 83 125
2841 49 0 2 7 44 55
2842 47 1 2 7 94 70
2843 47 2 2 7 94 70
2844 33 3 2 7 99 32
2845 43 4 2 7 74 26
2846 43 5 2 7 74 26
2847 43 6 2 7 74 26
2848 43 7 2 7 74 26
2849 41 8 2 7 83 125
2850 41 9 2 7 83 125
2861 49 0 3 7 44 55
2862 49 1 3 7 44 55
2863 40 2 3 7 79 43
2864 40 3 3 7 79 43
2865 40 4 3 7 79 43
2866 43 5 3 7 74 26
2867 43 6 3 7 74 26
2868 17 7 3 7 47 137
2869 51 8 3 7 50 59
2870 41 9 3 7 83 125
2881 49 0 4 7 44 55
2882 49 1 4 7 44 55
2883 49 2 4 7 44 55
2884 40 3 4 7 79 43
2885 58 4 4 7 43 40
2886 40 5 4 7 79 43
2887 17 6 4 7 47 137
2888 51 7 4 7 50 59
2889 51 8 4 7 50 59
2890 41 9 4 7 83 125
2901 44 0 5 7 40 24
2902 44 1 5 7 40 24
2903 44 2 5 7 40 24
2904 40 3 5 7 79 43
2905 51 4 5 7 50 59
2906 17 5 5 7 47 137
2907 51 6 5 7 50 59
2908 51 7 5 7 50 59
2909 51 8 5 7 50 59
2910 41 9 5 7 83 125
2921 44 0 6 7 40 24
2922 44 1 6 7 40 24
2923 44 2 6 7 40 24
2924 44 3 6 7 40 24
2925 17 4 6 7 47 137
2926 17 5 6 7 47 137
2927 51 6 6 7 50 59
2928 51 7 6 7 50 59
2929 41 8 6 7 83 125
2930 41 9 6 7 83 125
2941 44 0 7 7 40 24
2942 44 1 7 7 40 24
2943 46 2 7 7 3 32
2944 28 3 7 7 36 60
2945 17 4 7 7 47 137
2946 51 5 7 7 50 59
2947 59 6 7 7 72 15
2948 59 7 7 7 72 15
2949 17 8 7 7 47 137
2950 45 9 7 7 8 42
2961 46 0 8 7 3 32
2962 46 1 8 7 3 32
2963 46 2 8 7 3 32
2964 46 3 8 7 3 32
2965 28 4 8 7 36 60
2966 28 5 8 7 36 60
2967 28 6 8 7 36 60
2968 17 7 8 7 47 137
2969 45 8 8 7 8 42
2970 45 9 8 7 8 42
2981 46 0 9 7 3 32
2982 46 1 9 7 3 32
2983 46 2 9 7 3 32
2984 46 3 9 7 3 32
2985 28 4 9 7 36 60
2986 38 5 9 7 87 13
2987 54 6 9 7 94 39
2988 54 7 9 7 94 39
2989 60 8 9 7 65 27
2990 45 9 9 7 8 42
3201 47 0 0 8 94 70
3202 47 1 0 8 94 70
3203 48 2 0 8 90 15
3204 48 3 0 8 90 15
3205 58 4 0 8 43 40
3206 42 5 0 8 39 26
3207 42 6 0 8 39 26
3208 56 7 0 8 48 49
3209 55 8 0 8 89 2
3210 56 9 0 8 48 49
3221 47 0 1 8 94 70
3222 47 1 1 8 94 70
3223 47 2 1 8 94 70
3224 48 3 1 8 90 15
3225 58 4 1 8 43 40
3226 58 5 1 8 43 40
3227 43 6 1 8 74 26
3228 56 7 1 8 48 49
3229 56 8 1 8 48 49
3230 41 9 1 8 83 125
3241 49 0 2 8 44 55
3242 47 1 2 8 94 70
3243 47 2 2 8 94 70
3244 33 3 2 8 99 32
3245 58 4 2 8 43 40
3246 43 5 2 8 74 26
3247 43 6 2 8 74 26
3248 43 7 2 8 74 26
3249 41 8 2 8 83 125
3250 41 9 2 8 83 125
3261 49 0 3 8 44 55
3262 49 1 3 8 44 55
3263 49 2 3 8 44 55
3264 61 3 3 8 10 51
3265 58 4 3 8 43 40
3266 58 5 3 8 43 40
3267 62 6 3 8 22 21
3268 62 7 3 8 22 21
3269 62 8 3 8 22 21
3270 63 9 3 8 57 43
3281 64 0 4 8 27 67
3282 49 1 4 8 44 55
3283 49 2 4 8 44 55
3284 58 3 4 8 43 40
3285 58 4 4 8 43 40
3286 58 5 4 8 43 40
3287 51 6 4 8 50 59
3288 51 7 4 8 50 59
3289 41 8 4 8 83 125
3290 41 9 4 8 83 125
3301 44 0 5 8 40 24
3302 49 1 5 8 44 55
3303 49 2 5 8 44 55
3304 58 3 5 8 43 40
3305 17 4 5 8 47 137
3306 51 5 5 8 50 59
3307 51 6 5 8 50 59
3308 51 7 5 8 50 59
3309 51 8 5 8 50 59
3310 63 9 5 8 57 43
3321 44 0 6 8 40 24
3322 44 1 6 8 40 24
3323 49 2 6 8 44 55
3324 65 3 6 8 10 51
3325 17 4 6 8 47 137
3326 51 5 6 8 50 59
3327 51 6 6 8 50 59
3328 51 7 6 8 50 59
3329 51 8 6 8 50 59
3330 63 9 6 8 57 43
3341 64 0 7 8 27 67
3342 64 1 7 8 27 67
3343 64 2 7 8 27 67
3344 65 3 7 8 10 51
3345 65 4 7 8 10 51
3346 28 5 7 8 36 60
3347 59 6 7 8 72 15
3348 51 7 7 8 50 59
3349 59 8 7 8 72 15
3350 63 9 7 8 57 43
3361 66 0 8 8 66 184
3362 46 1 8 8 3 32
3363 46 2 8 8 3 32
3364 51 3 8 8 50 59
3365 51 4 8 8 50 59
3366 51 5 8 8 50 59
3367 51 6 8 8 50 59
3368 17 7 8 8 47 137
3369 59 8 8 8 72 15
3370 60 9 8 8 65 27
3381 66 0 9 8 66 184
3382 46 1 9 8 3 32
3383 66 2 9 8 66 184
3384 46 3 9 8 3 32
3385 51 4 9 8 50 59
3386 51 5 9 8 50 59
3387 17 6 9 8 47 137
3388 59 7 9 8 72 15
3389 60 8 9 8 65 27
3390 60 9 9 8 65 27
3601 47 0 0 9 94 70
3602 47 1 0 9 94 70
3603 47 2 0 9 94 70
3604 47 3 0 9 94 70
3605 58 4 0 9 43 40
3606 58 5 0 9 43 40
3607 67 6 0 9 18 8
3608 56 7 0 9 48 49
3609 56 8 0 9 48 49
3610 56 9 0 9 48 49
3621 47 0 1 9 94 70
3622 47 1 1 9 94 70
3623 47 2 1 9 94 70
3624 68 3 1 9 30 1
3625 58 4 1 9 43 40
3626 58 5 1 9 43 40
3627 58 6 1 9 43 40
3628 69 7 1 9 13 19
3629 69 8 1 9 13 19
3630 70 9 1 9 35 14
3641 61 0 2 9 10 51
3642 71 1 2 9 3 143
3643 61 2 2 9 10 51
3644 61 3 2 9 10 51
3645 58 4 2 9 43 40
3646 58 5 2 9 43 40
3647 58 6 2 9 43 40
3648 62 7 2 9 22 21
3649 62 8 2 9 22 21
3650 69 9 2 9 13 19
3661 49 0 3 9 44 55
3662 61 1 3 9 10 51
3663 61 2 3 9 10 51
3664 58 3 3 9 43 40
3665 58 4 3 9 43 40
3666 58 5 3 9 43 40
3667 58 6 3 9 43 40
3668 62 7 3 9 22 21
3669 62 8 3 9 22 21
3670 62 9 3 9 22 21
3681 49 0 4 9 44 55
3682 49 1 4 9 44 55
3683 64 2 4 9 27 67
3684 58 3 4 9 43 40
3685 58 4 4 9 43 40
3686 58 5 4 9 43 40
3687 72 6 4 9 21 25
3688 62 7 4 9 22 21
3689 62 8 4 9 22 21
3690 63 9 4 9 57 43
3701 73 0 5 9 84 29
3702 64 1 5 9 27 67
3703 49 2 5 9 44 55
3704 65 3 5 9 10 51
3705 65 4 5 9 10 51
3706 65 5 5 9 10 51
3707 51 6 5 9 50 59
3708 62 7 5 9 22 21
3709 51 8 5 9 50 59
3710 63 9 5 9 57 43
3721 64 0 6 9 27 67
3722 64 1 6 9 27 67
3723 64 2 6 9 27 67
3724 65 3 6 9 10 51
3725 65 4 6 9 10 51
3726 65 5 6 9 10 51
3727 51 6 6 9 50 59
3728 51 7 6 9 50 59
3729 74 8 6 9 73 39
3730 63 9 6 9 57 43
3741 64 0 7 9 27 67
3742 64 1 7 9 27 67
3743 65 2 7 9 10 51
3744 65 3 7 9 10 51
3745 65 4 7 9 10 51
3746 51 5 7 9 50 59
3747 51 6 7 9 50 59
3748 51 7 7 9 50 59
3749 74 8 7 9 73 39
3750 75 9 7 9 48 11
3761 66 0 8 9 66 184
3762 64 1 8 9 27 67
3763 66 2 8 9 66 184
3764 51 3 8 9 50 59
3765 51 4 8 9 50 59
3766 51 5 8 9 50 59
3767 51 6 8 9 50 59
3768 76 7 8 9 19 1
3769 59 8 8 9 72 15
3770 59 9 8 9 72 15
3781 66 0 9 9 66 184
3782 66 1 9 9 66 184
3783 66 2 9 9 66 184
3784 51 3 9 9 50 59
3785 51 4 9 9 50 59
3786 51 5 9 9 50 59
3787 51 6 9 9 50 59
3788 59 7 9 9 72 15
3789 59 8 9 9 72 15
3790 59 9 9 9 72 15
11 77 10 0 0 42 38
12 78 11 0 0 20 15
13 77 12 0 0 42 38
14 78 13 0 0 20 15
15 78 14 0 0 20 15
16 79 15 0 0 61 3
17 80 16 0 0 48 16
18 80 17 0 0 48 16
19 81 18 0 0 16 47
20 82 19 0 0 46 14
31 83 10 1 0 97 4
32 78 11 1 0 20 15
33 78 12 1 0 20 15
34 78 13 1 0 20 15
35 78 14 1 0 20 15
36 84 15 1 0 34 22
37 80 16 1 0 48 16
38 80 17 1 0 48 16
39 80 18 1 0 48 16
40 81 19 1 0 16 47
51 77 10 2 0 42 38
52 85 11 2 0 83 125
53 85 12 2 0 83 125
54 85 13 2 0 83 125
55 85 14 2 0 83 125
56 84 15 2 0 34 22
57 84 16 2 0 34 22
58 80 17 2 0 48 16
59 86 18 2 0 95 19
60 86 19 2 0 95 19
71 83 10 3 0 97 4
72 87 11 3 0 54 14
73 85 12 3 0 83 125
74 88 13 3 0 94 9
75 85 14 3 0 83 125
76 89 15 3 0 74 10
77 89 16 3 0 74 10
78 90 17 3 0 72 10
79 90 18 3 0 72 10
80 86 19 3 0 95 19
91 91 10 4 0 72 26
92 87 11 4 0 54 14
93 87 12 4 0 54 14
94 88 13 4 0 94 9
95 88 14 4 0 94 9
96 89 15 4 0 74 10
97 92 16 4 0 84 27
98 93 17 4 0 80 28
99 93 18 4 0 80 28
100 93 19 4 0 80 28
111 94 10 5 0 47 137
112 94 11 5 0 47 137
113 95 12 5 0 27 16
114 88 13 5 0 94 9
115 96 14 5 0 21 13
116 92 15 5 0 84 27
117 92 16 5 0 84 27
118 92 17 5 0 84 27
119 93 18 5 0 80 28
120 93 19 5 0 80 28
131 94 10 6 0 47 137
132 94 11 6 0 47 137
133 97 12 6 0 40 41
134 96 13 6 0 21 13
135 96 14 6 0 21 13
136 92 15 6 0 84 27
137 98 16 6 0 64 16
138 99 17 6 0 89 24
139 99 18 6 0 89 24
140 99 19 6 0 89 24
151 100 10 7 0 88 19
152 101 11 7 0 60 23
153 97 12 7 0 40 41
154 96 13 7 0 21 13
155 96 14 7 0 21 13
156 96 15 7 0 21 13
157 99 16 7 0 89 24
158 99 17 7 0 89 24
159 99 18 7 0 89 24
160 102 19 7 0 86 122
171 100 10 8 0 88 19
172 100 11 8 0 88 19
173 100 12 8 0 88 19
174 97 13 8 0 40 41
175 96 14 8 0 21 13
176 96 15 8 0 21 13
177 103 16 8 0 4 3
178 99 17 8 0 89 24
179 99 18 8 0 89 24
180 102 19 8 0 86 122
191 104 10 9 0 45 40
192 105 11 9 0 74 6
193 100 12 9 0 88 19
194 97 13 9 0 40 41
195 106 14 9 0 3 143
196 106 15 9 0 3 143
197 106 16 9 0 3 143
198 106 17 9 0 3 143
199 107 18 9 0 23 15
200 102 19 9 0 86 122
411 77 10 0 1 42 38
412 77 11 0 1 42 38
413 78 12 0 1 20 15
414 78 13 0 1 20 15
415 79 14 0 1 61 3
416 79 15 0 1 61 3
417 84 16 0 1 34 22
418 80 17 0 1 48 16
419 80 18 0 1 48 16
420 108 19 0 1 86 122
431 77 10 1 1 42 38
432 77 11 1 1 42 38
433 78 12 1 1 20 15
434 78 13 1 1 20 15
435 84 14 1 1 34 22
436 84 15 1 1 34 22
437 84 16 1 1 34 22
438 80 17 1 1 48 16
439 80 18 1 1 48 16
440 108 19 1 1 86 122
451 83 10 2 1 97 4
452 83 11 2 1 97 4
453 85 12 2 1 83 125
454 78 13 2 1 20 15
455 78 14 2 1 20 15
456 84 15 2 1 34 22
457 109 16 2 1 35 20
458 109 17 2 1 35 20
459 86 18 2 1 95 19
460 86 19 2 1 95 19
471 85 10 3 1 83 125
472 87 11 3 1 54 14
473 85 12 3 1 83 125
474 85 13 3 1 83 125
475 110 14 3 1 11 48
476 89 15 3 1 74 10
477 89 16 3 1 74 10
478 90 17 3 1 72 10
479 109 18 3 1 35 20
480 86 19 3 1 95 19
491 87 10 4 1 54 14
492 85 11 4 1 83 125
493 88 12 4 1 94 9
494 88 13 4 1 94 9
495 88 14 4 1 94 9
496 89 15 4 1 74 10
497 90 16 4 1 72 10
498 90 17 4 1 72 10
499 90 18 4 1 72 10
500 86 19 4 1 95 19
511 101 10 5 1 60 23
512 87 11 5 1 54 14
513 97 12 5 1 40 41
514 88 13 5 1 94 9
515 110 14 5 1 11 48
516 98 15 5 1 64 16
517 98 16 5 1 64 16
518 90 17 5 1 72 10
519 99 18 5 1 89 24
520 111 19 5 1 36 60
531 94 10 6 1 47 137
532 101 11 6 1 60 23
533 97 12 6 1 40 41
534 97 13 6 1 40 41
535 97 14 6 1 40 41
536 97 15 6 1 40 41
537 98 16 6 1 64 16
538 90 17 6 1 72 10
539 99 18 6 1 89 24
540 99 19 6 1 89 24
551 100 10 7 1 88 19
552 97 11 7 1 40 41
553 97 12 7 1 40 41
554 97 13 7 1 40 41
555 110 14 7 1 11 48
556 99 15 7 1 89 24
557 98 16 7 1 64 16
558 99 17 7 1 89 24
559 99 18 7 1 89 24
560 102 19 7 1 86 122
571 100 10 8 1 88 19
572 100 11 8 1 88 19
573 97 12 8 1 40 41
574 97 13 8 1 40 41
575 97 14 8 1 40 41
576 97 15 8 1 40 41
577 103 16 8 1 4 3
578 99 17 8 1 89 24
579 99 18 8 1 89 24
580 102 19 8 1 86 122
591 104 10 9 1 45 40
592 100 11 9 1 88 19
593 100 12 9 1 88 19
594 112 13 9 1 41 10
595 106 14 9 1 3 143
596 106 15 9 1 3 143
597 103 16 9 1 4 3
598 106 17 9 1 3 143
599 99 18 9 1 89 24
600 102 19 9 1 86 122
811 77 10 0 2 42 38
812 113 11 0 2 52 71
813 85 12 0 2 83 125
814 85 13 0 2 83 125
815 84 14 0 2 34 22
816 84 15 0 2 34 22
817 114 16 0 2 42 13
818 114 17 0 2 42 13
819 80 18 0 2 48 16
820 108 19 0 2 86 122
831 115 10 1 2 90 36
832 85 11 1 2 83 125
833 85 12 1 2 83 125
834 85 13 1 2 83 125
835 84 14 1 2 34 22
836 84 15 1 2 34 22
837 116 16 1 2 73 6
838 114 17 1 2 42 13
839 108 18 1 2 86 122
840 108 19 1 2 86 122
851 115 10 2 2 90 36
852 85 11 2 2 83 125
853 78 12 2 2 20 15
854 85 13 2 2 83 125
855 84 14 2 2 34 22
856 84 15 2 2 34 22
857 109 16 2 2 35 20
858 109 17 2 2 35 20
859 109 18 2 2 35 20
860 108 19 2 2 86 122
871 87 10 3 2 54 14
872 87 11 3 2 54 14
873 85 12 3 2 83 125
874 110 13 3 2 11 48
875 110 14 3 2 11 48
876 109 15 3 2 35 20
877 109 16 3 2 35 20
878 109 17 3 2 35 20
879 109 18 3 2 35 20
880 86 19 3 2 95 19
891 87 10 4 2 54 14
892 87 11 4 2 54 14
893 87 12 4 2 54 14
894 110 13 4 2 11 48
895 110 14 4 2 11 48
896 110 15 4 2 11 48
897 109 16 4 2 35 20
898 90 17 4 2 72 10
899 109 18 4 2 35 20
900 86 19 4 2 95 19
911 117 10 5 2 72 26
912 88 11 5 2 94 9
913 110 12 5 2 11 48
914 110 13 5 2 11 48
915 110 14 5 2 11 48
916 98 15 5 2 64 16
917 98 16 5 2 64 16
918 90 17 5 2 72 10
919 111 18 5 2 36 60
920 111 19 5 2 36 60
931 117 10 6 2 72 26
932 97 11 6 2 40 41
933 97 12 6 2 40 41
934 97 13 6 2 40 41
935 110 14 6 2 11 48
936 98 15 6 2 64 16
937 98 16 6 2 64 16
938 98 17 6 2 64 16
939 99 18 6 2 89 24
940 111 19 6 2 36 60
951 100 10 7 2 88 19
952 100 11 7 2 88 19
953 97 12 7 2 40 41
954 97 13 7 2 40 41
955 97 14 7 2 40 41
956 97 15 7 2 40 41
957 98 16 7 2 64 16
958 99 17 7 2 89 24
959 99 18 7 2 89 24
960 111 19 7 2 36 60
971 100 10 8 2 88 19
972 100 11 8 2 88 19
973 112 12 8 2 41 10
974 97 13 8 2 40 41
975 97 14 8 2 40 41
976 97 15 8 2 40 41
977 97 16 8 2 40 41
978 99 17 8 2 89 24
979 99 18 8 2 89 24
980 111 19 8 2 36 60
991 104 10 9 2 45 40
992 100 11 9 2 88 19
993 118 12 9 2 5 42
994 97 13 9 2 40 41
995 112 14 9 2 41 10
996 119 15 9 2 2 80
997 106 16 9 2 3 143
998 120 17 9 2 29 44
999 120 18 9 2 29 44
1000 111 19 9 2 36 60
1211 113 10 0 3 52 71
1212 85 11 0 3 83 125
1213 85 12 0 3 83 125
1214 85 13 0 3 83 125
1215 84 14 0 3 34 22
1216 84 15 0 3 34 22
1217 114 16 0 3 42 13
1218 114 17 0 3 42 13
1219 114 18 0 3 42 13
1220 121 19 0 3 35 62
1231 113 10 1 3 52 71
1232 85 11 1 3 83 125
1233 85 12 1 3 83 125
1234 85 13 1 3 83 125
1235 84 14 1 3 34 22
1236 84 15 1 3 34 22
1237 114 16 1 3 42 13
1238 116 17 1 3 73 6
1239 108 18 1 3 86 122
1240 108 19 1 3 86 122
1251 115 10 2 3 90 36
1252 87 11 2 3 54 14
1253 85 12 2 3 83 125
1254 85 13 2 3 83 125
1255 85 14 2 3 83 125
1256 84 15 2 3 34 22
1257 116 16 2 3 73 6
1258 116 17 2 3 73 6
1259 109 18 2 3 35 20
1260 108 19 2 3 86 122
1271 87 10 3 3 54 14
1272 87 11 3 3 54 14
1273 85 12 3 3 83 125
1274 110 13 3 3 11 48
1275 122 14 3 3 80 30
1276 109 15 3 3 35 20
1277 109 16 3 3 35 20
1278 109 17 3 3 35 20
1279 108 18 3 3 86 122
1280 108 19 3 3 86 122
1291 123 10 4 3 86 13
1292 123 11 4 3 86 13
1293 110 12 4 3 11 48
1294 110 13 4 3 11 48
1295 110 14 4 3 11 48
1296 109 15 4 3 35 20
1297 109 16 4 3 35 20
1298 109 17 4 3 35 20
1299 109 18 4 3 35 20
1300 108 19 4 3 86 122
1311 123 10 5 3 86 13
1312 123 11 5 3 86 13
1313 110 12 5 3 11 48
1314 110 13 5 3 11 48
1315 110 14 5 3 11 48
1316 110 15 5 3 11 48
1317 98 16 5 3 64 16
1318 111 17 5 3 36 60
1319 111 18 5 3 36 60
1320 111 19 5 3 36 60
1331 123 10 6 3 86 13
1332 123 11 6 3 86 13
1333 110 12 6 3 11 48
1334 97 13 6 3 40 41
1335 110 14 6 3 11 48
1336 110 15 6 3 11 48
1337 98 16 6 3 64 16
1338 98 17 6 3 64 16
1339 111 18 6 3 36 60
1340 111 19 6 3 36 60
1351 124 10 7 3 47 137
1352 125 11 7 3 8 42
1353 125 12 7 3 8 42
1354 97 13 7 3 40 41
1355 97 14 7 3 40 41
1356 110 15 7 3 11 48
1357 98 16 7 3 64 16
1358 99 17 7 3 89 24
1359 111 18 7 3 36 60
1360 111 19 7 3 36 60
1371 124 10 8 3 47 137
1372 100 11 8 3 88 19
1373 100 12 8 3 88 19
1374 126 13 8 3 90 3
1375 97 14 8 3 40 41
1376 97 15 8 3 40 41
1377 97 16 8 3 40 41
1378 120 17 8 3 29 44
1379 120 18 8 3 29 44
1380 111 19 8 3 36 60
1391 100 10 9 3 88 19
1392 125 11 9 3 8 42
1393 118 12 9 3 5 42
1394 112 13 9 3 41 10
1395 97 14 9 3 40 41
1396 97 15 9 3 40 41
1397 97 16 9 3 40 41
1398 120 17 9 3 29 44
1399 120 18 9 3 29 44
1400 120 19 9 3 29 44
1611 115 10 0 4 90 36
1612 85 11 0 4 83 125
1613 85 12 0 4 83 125
1614 85 13 0 4 83 125
1615 84 14 0 4 34 22
1616 84 15 0 4 34 22
1617 127 16 0 4 52 71
1618 108 17 0 4 86 122
1619 108 18 0 4 86 122
1620 108 19 0 4 86 122
1631 128 10 1 4 95 1
1632 113 11 1 4 52 71
1633 85 12 1 4 83 125
1634 85 13 1 4 83 125
1635 85 14 1 4 83 125
1636 114 15 1 4 42 13
1637 116 16 1 4 73 6
1638 108 17 1 4 86 122
1639 122 18 1 4 80 30
1640 108 19 1 4 86 122
1651 115 10 2 4 90 36
1652 85 11 2 4 83 125
1653 85 12 2 4 83 125
1654 85 13 2 4 83 125
1655 122 14 2 4 80 30
1656 122 15 2 4 80 30
1657 116 16 2 4 73 6
1658 122 17 2 4 80 30
1659 108 18 2 4 86 122
1660 108 19 2 4 86 122
1671 85 10 3 4 83 125
1672 85 11 3 4 83 125
1673 123 12 3 4 86 13
1674 110 13 3 4 11 48
1675 122 14 3 4 80 30
1676 129 15 3 4 88 38
1677 122 16 3 4 80 30
1678 122 17 3 4 80 30
1679 122 18 3 4 80 30
1680 108 19 3 4 86 122
1691 123 10 4 4 86 13
1692 85 11 4 4 83 125
1693 123 12 4 4 86 13
1694 110 13 4 4 11 48
1695 122 14 4 4 80 30
1696 129 15 4 4 88 38
1697 129 16 4 4 88 38
1698 122 17 4 4 80 30
1699 130 18 4 4 43 15
1700 131 19 4 4 84 1
1711 123 10 5 4 86 13
1712 123 11 5 4 86 13
1713 110 12 5 4 11 48
1714 110 13 5 4 11 48
1715 110 14 5 4 11 48
1716 129 15 5 4 88 38
1717 129 16 5 4 88 38
1718 130 17 5 4 43 15
1719 130 18 5 4 43 15
1720 130 19 5 4 43 15
1731 125 10 6 4 8 42
1732 123 11 6 4 86 13
1733 110 12 6 4 11 48
1734 110 13 6 4 11 48
1735 110 14 6 4 11 48
1736 129 15 6 4 88 38
1737 129 16 6 4 88 38
1738 130 17 6 4 43 15
1739 130 18 6 4 43 15
1740 111 19 6 4 36 60
1751 125 10 7 4 8 42
1752 125 11 7 4 8 42
1753 125 12 7 4 8 42
1754 110 13 7 4 11 48
1755 110 14 7 4 11 48
1756 110 15 7 4 11 48
1757 98 16 7 4 64 16
1758 111 17 7 4 36 60
1759 111 18 7 4 36 60
1760 111 19 7 4 36 60
1771 125 10 8 4 8 42
1772 125 11 8 4 8 42
1773 125 12 8 4 8 42
1774 126 13 8 4 90 3
1775 110 14 8 4 11 48
1776 97 15 8 4 40 41
1777 132 16 8 4 21 28
1778 133 17 8 4 38 1
1779 111 18 8 4 36 60
1780 111 19 8 4 36 60
1791 125 10 9 4 8 42