SPPARKS (13 Apr 2009)
# SPPARKS relaxation test

seed		 56789

app_style	 relax 0.5 lattice sq/8n 1.0 32 32
Creating domain ...
  1 by 1 by 1 processor grid
  1024 sites

pair_style	 lj/cut 1 2.5
pair_coeff	 1 1 1.0 1.0

sweep		 random
sector		 yes

temperature	 1.0

stats            100.0
dump             1 100.0 dump.relax

diag_style	 energy

run              5000.0
  Bins/proc: 10 10 1
  Bin sizes: 3.2 3.2 1
      Time    Naccept    Nreject    Nsweeps        CPU     Energy
         0          0          0          0          0   -1969.88
       100       5315      97209        100      0.205   -680.377
       200      12668     192341        200      0.414   -1839.61
       300      20661     286825        300      0.629   -2161.31
       400      29029     380913        400      0.845   -2365.53
       500      37590     474810        500       1.06   -2489.12
       600      46335     568534        600       1.28      -2695
       700      55032     662284        700        1.5    -2725.1
       800      63735     756042        800       1.71   -2877.05
       900      72686     849557        900       1.93   -2833.49
      1000      81750     942930       1000       2.15   -3022.85
      1100      90708    1036415       1100       2.37   -2968.27
      1200      99558    1130004       1200       2.59   -3069.86
      1300     108531    1223468       1300       2.81   -2977.63
      1400     117559    1316880       1400       3.03   -3061.98
      1500     126692    1410193       1500       3.25   -3046.13
      1600     135932    1503399       1600       3.47   -3174.77
      1700     145061    1596718       1700       3.69   -3205.66
      1800     154079    1690142       1800       3.91   -3104.35
      1900     163412    1783263       1900       4.13   -3237.63
      2000     172576    1876534       2000       4.35   -3304.38
      2100     181708    1969838       2100       4.57   -3371.75
      2200     190935    2063059       2200       4.79   -3434.31
      2300     200247    2156189       2300       5.01   -3310.24
      2400     209574    2249301       2400       5.23   -3311.62
      2500     218930    2342399       2500       5.45   -3413.49
      2600     228333    2435434       2600       5.67   -3449.83
      2700     237782    2528429       2700       5.89   -3462.52
      2800     247011    2621646       2800       6.11   -3484.17
      2900     256355    2714743       2900       6.33   -3392.81
      3000     265625    2807917       3000       6.55   -3384.86
      3100     274837    2901156       3100       6.77    -3319.9
      3200     284165    2994272       3200       6.99   -3292.43
      3300     293423    3087459       3300       7.21   -3452.32
      3400     302821    3180491       3400       7.43   -3352.69
      3500     312209    3273536       3500       7.65   -3464.11
      3600     321679    3366509       3600       7.87   -3457.54
      3700     331170    3459457       3700       8.09   -3508.38
      3800     340484    3552584       3800       8.32   -3578.76
      3900     349843    3645676       3900       8.54   -3529.33
      4000     359347    3738611       4000       8.76   -3562.69
      4100     368594    3831807       4100       8.98   -3553.54
      4200     378215    3924636       4200        9.2   -3586.34
      4300     387718    4017573       4300       9.42   -3515.47
      4400     397284    4110441       4400       9.64   -3541.75
      4500     406967    4203196       4500       9.86   -3477.84
      4600     416541    4296061       4600       10.1   -3503.25
      4700     426118    4388922       4700       10.3   -3556.01
      4800     435659    4481816       4800       10.5      -3541
      4900     445091    4574819       4900       10.7   -3541.72
      5000     454530    4667812       5000         11   -3528.07
Loop time of 10.9712 on 1 procs

Solve time (%) = 10.6191 (96.7909)
Update time (%) = 0 (0)
Comm  time (%) = 0.169065 (1.54099)
Outpt time (%) = 0.1744 (1.58962)
App   time (%) = 0 (0)
Other time (%) = 0.00861406 (0.0785153)
