SPPARKS (13 Apr 2009)
# SPPARKS relaxation test

seed		 56789

app_style	 relax 0.5 lattice sq/8n 1.0 32 32
Creating domain ...
  2 by 2 by 1 processor grid
  1024 sites

pair_style	 lj/cut 1 2.5
pair_coeff	 1 1 1.0 1.0

sweep		 random
sector		 yes

temperature	 1.0

stats            100.0
dump             1 100.0 dump.relax

diag_style	 energy

run              5000.0
  Bins/proc: 4 4 1
  Bin sizes: 4 4 1
      Time    Naccept    Nreject    Nsweeps        CPU     Energy
         0          0          0          0          0   -1969.88
       100       5249      97370        100      0.255   -626.718
       200      12386     192822        200       0.51   -1604.93
       300      20391     287356        300      0.766    -2153.6
       400      28679     381594        400       1.02   -2336.37
       500      37127     475670        500       1.28    -2537.2
       600      45663     569650        600       1.53   -2579.73
       700      54450     663366        700       1.79   -2640.89
       800      63186     757134        800       2.04   -2895.11
       900      71882     850953        900        2.3    -2956.7
      1000      80986     944343       1000       2.55   -2966.26
      1100      90059    1037744       1100       2.81   -2964.45
      1200      99374    1130915       1200       3.07   -3018.55
      1300     108567    1224206       1300       3.32   -3211.68
      1400     117544    1317704       1400       3.58   -3212.97
      1500     126778    1410960       1500       3.83   -3278.32
      1600     135928    1504291       1600       4.09   -3299.01
      1700     145119    1597577       1700       4.34   -3311.75
      1800     154427    1690743       1800        4.6   -3353.67
      1900     163642    1783996       1900       4.85   -3385.27
      2000     172942    1877173       2000       5.11   -3378.48
      2100     182215    1970388       2100       5.37   -3340.71
      2200     191681    2063396       2200       5.62   -3455.11
      2300     201079    2156468       2300       5.88   -3523.22
      2400     210507    2249517       2400       6.13   -3388.11
      2500     220064    2342425       2500       6.39   -3459.08
      2600     229601    2435353       2600       6.65   -3509.71
      2700     239001    2528430       2700        6.9   -3588.41
      2800     248525    2621395       2800       7.16    -3438.8
      2900     257952    2714435       2900       7.41    -3527.3
      3000     267456    2807406       3000       7.67   -3407.29
      3100     277187    2900131       3100       7.92   -3655.06
      3200     286657    2993128       3200       8.18   -3543.79
      3300     296248    3086006       3300       8.44   -3553.41
      3400     305750    3178984       3400       8.69   -3594.77
      3500     315241    3271955       3500       8.95   -3624.43
      3600     324907    3364767       3600        9.2   -3571.62
      3700     334470    3457670       3700       9.46   -3648.96
      3800     344087    3550548       3800       9.72   -3547.13
      3900     353657    3643459       3900       9.97   -3614.72
      4000     363291    3736301       4000       10.2   -3740.56
      4100     372938    3829136       4100       10.5   -3591.62
      4200     382517    3922032       4200       10.7   -3570.61
      4300     391990    4015031       4300         11   -3658.99
      4400     401739    4107767       4400       11.2   -3638.59
      4500     411320    4200677       4500       11.5   -3589.63
      4600     421057    4293408       4600       11.8    -3610.6
      4700     430767    4386174       4700         12   -3631.93
      4800     440331    4479078       4800       12.3   -3655.59
      4900     449696    4572181       4900       12.5    -3687.9
      5000     459442    4664915       5000       12.8   -3674.66
Loop time of 12.781 on 4 procs

Solve time (%) = 3.40351 (26.6295)
Update time (%) = 0 (0)
Comm  time (%) = 9.16191 (71.684)
Outpt time (%) = 0.196311 (1.53596)
App   time (%) = 0 (0)
Other time (%) = 0.019242 (0.150552)
